/*--------------------------------*- C++ -*----------------------------------*\
| =========                 |                                                 |
| \\      /  F ield         | OpenFOAM: The Open Source CFD Toolbox           |
|  \\    /   O peration     | Version:  2106                                  |
|   \\  /    A nd           | Website:  www.openfoam.com                      |
|    \\/     M anipulation  |                                                 |
\*---------------------------------------------------------------------------*/
FoamFile
{
    version     2.0;
    format      ascii;
    arch        "LSB;label=32;scalar=64";
    class       surfaceScalarField;
    location    "0.21";
    object      phi;
}
// * * * * * * * * * * * * * * * * * * * * * * * * * * * * * * * * * * * * * //

dimensions      [0 3 -1 0 0 0 0];

oriented        oriented;

internalField   nonuniform List<scalar> 
29100
(
0.00117959
0.15026
0.0810585
-3.58748e-10
0.00145202
0.155121
0.0890797
0.00124586
0.158527
0.0957806
0.000709492
0.160795
0.100577
-3.23941e-09
0.161933
0.103075
-0.000709499
0.161933
0.103075
-0.00124587
0.160795
0.100577
-0.00145203
0.158527
0.0957806
-0.0011796
0.155121
0.0890797
0.15026
0.0810585
-6.70285e-09
0.00235832
0.207666
0.155902
-6.29079e-10
0.00327596
0.212181
0.169475
0.00292144
0.215196
0.180573
0.00168986
0.217072
0.188422
-8.27576e-09
0.21799
0.192478
-0.00168988
0.21799
0.192478
-0.00292146
0.217072
0.188422
-0.00327598
0.215196
0.180573
-0.00235833
0.212181
0.169475
0.207666
0.155902
-1.64479e-08
0.00300152
0.21815
0.185349
-9.38016e-10
0.00424448
0.220932
0.200439
0.00380899
0.22272
0.212586
0.00220569
0.223674
0.221099
-1.28097e-08
0.224112
0.225475
-0.00220571
0.224112
0.225475
-0.00380901
0.223674
0.221099
-0.00424451
0.22272
0.212586
-0.00300155
0.220932
0.200439
0.21815
0.185349
-2.44584e-08
0.00341688
0.204197
0.192539
-1.21207e-09
0.00476395
0.205235
0.207762
0.00426506
0.205819
0.21986
0.00246495
0.205928
0.228277
-1.73067e-08
0.20593
0.232584
-0.00246498
0.20593
0.232584
-0.00426509
0.205928
0.228277
-0.00476399
0.205819
0.21986
-0.00341691
0.205235
0.207762
0.204197
0.192539
-3.13005e-08
0.00362778
0.178612
0.187127
-1.52621e-09
0.00498676
0.178308
0.20196
0.00445077
0.177978
0.213624
0.00256831
0.177484
0.221688
-2.22593e-08
0.177182
0.225801
-0.00256835
0.177182
0.225801
-0.00445081
0.177484
0.221688
-0.0049868
0.177978
0.213624
-0.00362782
0.178308
0.20196
0.178612
0.187127
-3.74408e-08
0.00368962
0.148792
0.17447
-1.91026e-09
0.00501842
0.147607
0.188744
0.00446774
0.146689
0.199872
0.00257592
0.145847
0.207522
-2.80749e-08
0.145377
0.211412
-0.00257598
0.145377
0.211412
-0.00446779
0.145847
0.207522
-0.00501847
0.146689
0.199872
-0.00368967
0.147607
0.188744
0.148791
0.17447
-4.30967e-08
0.00367082
0.118892
0.157736
-2.40532e-09
0.00495427
0.117232
0.171443
0.00440185
0.116007
0.182053
0.00253707
0.115028
0.189309
-3.5049e-08
0.114503
0.192989
-0.00253714
0.114503
0.192989
-0.00440192
0.115028
0.189309
-0.00495433
0.116007
0.182053
-0.00367088
0.117232
0.171443
0.118892
0.157736
-4.84647e-08
0.00360699
0.0911581
0.138802
-3.0232e-09
0.00485819
0.0893128
0.151999
0.00431482
0.0880032
0.162152
0.00248756
0.0870505
0.169061
-4.30755e-08
0.0865587
0.172556
-0.00248764
0.0865587
0.172556
-0.0043149
0.0870505
0.169061
-0.00485826
0.0880032
0.162152
-0.00360705
0.0893128
0.151999
0.091158
0.138802
-5.36488e-08
0.00354317
0.0666908
0.118767
-3.75759e-09
0.00479642
0.0648455
0.131525
0.00426117
0.0636402
0.141289
0.00245573
0.0628403
0.147904
-5.17765e-08
0.0624431
0.151242
-0.00245583
0.0624431
0.151242
-0.00426126
0.0628403
0.147904
-0.0047965
0.0636401
0.141289
-0.00354323
0.0648455
0.131525
0.0666908
0.118767
-5.84928e-08
0.00373254
0.0982736
-4.76219e-09
0.045696
0.00494665
0.110662
0.0442604
0.0043385
0.120095
0.0433298
0.00248034
0.12646
0.0427587
-6.0276e-08
0.129663
0.0424774
-0.00248045
0.129663
0.0424774
-0.0043386
0.12646
0.0427586
-0.00494675
0.120095
0.0433298
-0.00373261
0.110661
0.0442604
0.0982736
-6.22839e-08
0.045696
-0.000240803
0.0361031
0.0451962
-5.0756e-10
-0.000242898
0.0392326
0.0498492
-0.000171334
0.041879
0.05383
-8.55195e-05
0.0437703
0.0567207
-4.5928e-09
0.0447486
0.0582406
8.55105e-05
0.0447486
0.0582406
0.000171324
0.0437703
0.0567207
0.000242889
0.041879
0.05383
0.000240793
0.0392326
0.0498492
0.0361031
0.0451962
-9.87362e-09
5.44864e-05
0.0792269
0.112724
-1.14235e-09
0.000237308
0.084862
0.123663
0.000287013
0.0895497
0.132853
0.000193174
0.0928302
0.139456
-1.28526e-08
0.0945143
0.142905
-0.000193199
0.0945143
0.142905
-0.000287039
0.0928302
0.139456
-0.000237334
0.0895497
0.132853
-5.45124e-05
0.084862
0.123663
0.0792269
0.112724
-2.59629e-08
0.000585145
0.109348
0.154642
-1.72007e-09
0.000987776
0.11576
0.169138
0.000967595
0.121021
0.181134
0.000591699
0.124627
0.189679
-2.06401e-08
0.126462
0.194119
-0.000591739
0.126462
0.194119
-0.000967636
0.124627
0.189679
-0.000987817
0.121021
0.181134
-0.000585185
0.11576
0.169138
0.109348
0.154642
-3.97137e-08
0.00117583
0.124407
0.176305
-2.2299e-09
0.00178864
0.130363
0.192546
0.00168224
0.135182
0.205805
0.00100441
0.138408
0.215174
-2.86261e-08
0.140032
0.220019
-0.00100446
0.140032
0.220019
-0.0016823
0.138408
0.215174
-0.00178869
0.135182
0.205805
-0.00117589
0.130363
0.192546
0.124407
0.176305
-5.14573e-08
0.00174355
0.126388
0.183402
-2.78853e-09
0.00253445
0.131236
0.200297
0.00233895
0.135086
0.213915
0.00138045
0.137591
0.223463
-3.72492e-08
0.138834
0.228379
-0.00138053
0.138834
0.228379
-0.00233902
0.137591
0.223463
-0.00253452
0.135086
0.213915
-0.00174362
0.131236
0.200297
0.126388
0.183402
-6.15807e-08
0.00224536
0.118522
0.180091
-3.4334e-09
0.00318063
0.122043
0.197001
0.00290273
0.124763
0.210473
0.0017018
0.126466
0.219848
-4.69127e-08
0.127293
0.224654
-0.00170189
0.127293
0.224654
-0.00290282
0.126466
0.219848
-0.00318071
0.124763
0.210473
-0.00224544
0.122043
0.197001
0.118522
0.180091
-7.02311e-08
0.00266021
0.104153
0.169445
-4.33186e-09
0.00371399
0.106406
0.186027
0.00336831
0.108063
0.199098
0.00196749
0.109045
0.208131
-5.78458e-08
0.109508
0.212741
-0.0019676
0.109508
0.212741
-0.00336842
0.109045
0.208131
-0.00371408
0.108063
0.199098
-0.0026603
0.106406
0.186027
0.104153
0.169445
-7.74938e-08
0.00298456
0.0862329
0.153737
-5.64507e-09
0.00414763
0.0874037
0.169838
0.00375313
0.0881973
0.182412
0.00218871
0.0886287
0.191042
-6.95374e-08
0.0888226
0.195431
-0.00218885
0.0888226
0.195431
-0.00375325
0.0886287
0.191042
-0.00414774
0.0881973
0.182412
-0.00298465
0.0874037
0.169838
0.0862329
0.153737
-8.32875e-08
0.0032551
0.067114
0.134631
-7.43382e-09
0.00453443
0.0674328
0.150217
0.00409929
0.0676356
0.162286
0.00238707
0.0677262
0.170519
-8.08902e-08
0.0677623
0.17469
-0.00238722
0.0677623
0.17469
-0.00409943
0.0677262
0.170519
-0.00453456
0.0676356
0.162286
-0.0032552
0.0674328
0.150216
0.067114
0.134631
-8.69433e-08
0.0036304
0.113325
-9.52881e-09
0.0484325
0.00500982
0.128433
0.0482814
0.00449052
0.140037
0.0482135
0.00259907
0.147905
0.0481725
-8.96951e-08
0.151877
0.048148
-0.00259925
0.151877
0.048148
-0.00449067
0.147905
0.0481725
-0.00500996
0.140037
0.0482135
-0.0036305
0.128433
0.0482814
0.113325
-8.73093e-08
0.0484325
3.91882e-05
0.00953067
0.0356263
-4.75042e-10
3.49726e-05
0.010516
0.0393374
2.88485e-05
0.0113537
0.0424824
1.58099e-05
0.0119755
0.0447582
-4.24491e-09
0.0123032
0.0459532
-1.58185e-05
0.0123032
0.0459532
-2.88572e-05
0.0119755
0.0447582
-3.49819e-05
0.0113537
0.0424824
-3.91979e-05
0.010516
0.0393374
0.00953067
0.0356263
-9.95546e-09
0.000270565
0.028711
0.0932733
-9.69024e-10
0.0003654
0.0312551
0.102829
0.000325051
0.0333858
0.110861
0.000189131
0.0349206
0.116647
-1.24001e-08
0.0357221
0.119676
-0.000189156
0.0357221
0.119676
-0.000325077
0.0349206
0.116647
-0.000365426
0.0333858
0.110861
-0.000270591
0.0312551
0.102829
0.028711
0.0932733
-2.64907e-08
0.00056947
0.0481396
0.134644
-1.57073e-09
0.000804501
0.0518273
0.14833
0.000726483
0.0548712
0.159727
0.000425021
0.0570122
0.167889
-2.04781e-08
0.0581199
0.172146
-0.000425062
0.0581199
0.172146
-0.000726524
0.0570122
0.167889
-0.000804543
0.0548712
0.159727
-0.000569511
0.0518274
0.14833
0.0481396
0.134644
-4.07954e-08
0.000906114
0.0624215
0.161117
-2.26082e-09
0.00129519
0.0665422
0.177442
0.00117959
0.0698968
0.190895
0.000691561
0.0722058
0.200468
-2.88024e-08
0.0733883
0.205442
-0.000691619
0.0733883
0.205442
-0.00117965
0.0722058
0.200468
-0.00129525
0.0698968
0.190895
-0.000906169
0.0665422
0.177442
0.0624216
0.161117
-5.29329e-08
0.00125578
0.0698265
0.174741
-3.09559e-09
0.00179142
0.0737577
0.192546
0.00163562
0.0769094
0.207059
0.000959123
0.0790311
0.217315
-3.76567e-08
0.080105
0.222622
-0.000959198
0.080105
0.222622
-0.00163569
0.0790312
0.217315
-0.00179149
0.0769095
0.207059
-0.00125585
0.0737577
0.192546
0.0698266
0.174741
-6.31185e-08
0.00159932
0.0705742
0.177744
-4.0824e-09
0.00226536
0.0739059
0.196187
0.00206712
0.0765238
0.211057
0.00121136
0.0782434
0.221492
-4.72605e-08
0.079102
0.226869
-0.00121146
0.079102
0.226869
-0.00206721
0.0782434
0.221492
-0.00226544
0.0765238
0.211057
-0.0015994
0.0739059
0.196187
0.0705742
0.177744
-7.13357e-08
0.00191573
0.0658592
0.172244
-5.39723e-09
0.0026962
0.0683933
0.190759
0.00245758
0.0703293
0.205531
0.0014393
0.0715671
0.215825
-5.76513e-08
0.072176
0.221107
-0.00143941
0.072176
0.221107
-0.00245769
0.0715671
0.215825
-0.0026963
0.0703293
0.205531
-0.00191581
0.0683933
0.190759
0.0658592
0.172244
-7.7492e-08
0.00219132
0.0572673
0.160138
-7.22391e-09
0.00307749
0.058965
0.17838
0.0028042
0.0602208
0.192794
0.00164172
0.0610034
0.202768
-6.81301e-08
0.0613835
0.207865
-0.00164185
0.0613835
0.207865
-0.00280432
0.0610034
0.202768
-0.0030776
0.0602208
0.192794
-0.00219141
0.0589651
0.17838
0.0572673
0.160138
-8.13286e-08
0.00243955
0.0464106
0.143048
-9.57425e-09
0.00342871
0.0473457
0.160847
0.00312089
0.0480333
0.174781
0.00182497
0.0484586
0.18436
-7.74316e-08
0.0486647
0.189233
-0.00182512
0.0486647
0.189233
-0.00312103
0.0484587
0.18436
-0.00342883
0.0480333
0.174781
-0.00243965
0.0473457
0.160847
0.0464106
0.143048
-8.21701e-08
0.00273096
0.12232
-1.21173e-08
0.0346842
0.00380488
0.139641
0.0350648
0.00344104
0.153061
0.0353728
0.00200307
0.162223
0.0355781
-8.32444e-08
0.166867
0.0356779
-0.00200323
0.166867
0.0356779
-0.00344119
0.162223
0.0355781
-0.003805
0.153061
0.0353728
-0.00273105
0.13964
0.0350648
0.12232
-7.88209e-08
0.0346842
-3.13407e-05
0.00372285
0.0319348
-4.2616e-10
-4.48539e-05
0.00409863
0.0352523
-3.66345e-05
0.00441849
0.0380557
-2.03538e-05
0.00465621
0.0400857
-3.49213e-09
0.00478065
0.0411522
2.03467e-05
0.00478065
0.0411522
3.66271e-05
0.00465621
0.0400857
4.48456e-05
0.00441849
0.0380557
3.13324e-05
0.00409863
0.0352523
0.00372285
0.0319348
-8.64091e-09
3.06872e-06
0.0114233
0.0855698
-9.66042e-10
6.37929e-06
0.0125074
0.0944166
1.01745e-05
0.0134286
0.101847
8.33939e-06
0.0140984
0.107206
-1.04282e-08
0.0144495
0.110015
-8.36047e-06
0.0144495
0.110015
-1.01961e-05
0.0140984
0.107206
-6.39883e-06
0.0134286
0.101847
-3.09117e-06
0.0125074
0.0944166
0.0114233
0.0855698
-2.31399e-08
0.000100298
0.0201289
0.125838
-1.54931e-09
0.000151588
0.0218955
0.138891
0.000145622
0.0233844
0.149777
8.88246e-05
0.0244505
0.157593
-1.73768e-08
0.0250065
0.161678
-8.88595e-05
0.0250065
0.161678
-0.000145657
0.0244505
0.157593
-0.000151624
0.0233844
0.149777
-0.000100334
0.0218955
0.138891
0.0201289
0.125838
-3.57093e-08
0.000246922
0.0276188
0.15338
-2.25812e-09
0.000366771
0.0298204
0.169397
0.000345125
0.0316554
0.182646
0.000206776
0.0329485
0.192108
-2.45172e-08
0.0336181
0.197037
-0.000206824
0.0336181
0.197037
-0.000345174
0.0329485
0.192108
-0.00036682
0.0316554
0.182646
-0.000246968
0.0298204
0.169397
0.0276188
0.15338
-4.63405e-08
0.000427109
0.0325838
0.169349
-3.12499e-09
0.000625064
0.0349073
0.187261
0.000583257
0.0368158
0.20194
0.000346984
0.0381379
0.212362
-3.19765e-08
0.0388166
0.21777
-0.000347048
0.0388166
0.21777
-0.000583319
0.0381379
0.212362
-0.000625125
0.0368158
0.20194
-0.000427165
0.0349073
0.187261
0.0325838
0.169349
-5.50677e-08
0.000625797
0.0345373
0.175165
-4.17109e-09
0.000904168
0.0367065
0.194109
0.000838841
0.0384538
0.209484
0.000496972
0.0396419
0.22033
-3.98406e-08
0.0402458
0.225936
-0.000497051
0.0402458
0.225936
-0.000838917
0.0396419
0.22033
-0.000904239
0.0384539
0.209484
-0.000625862
0.0367065
0.194109
0.0345373
0.175165
-6.18125e-08
0.00082751
0.0335997
0.172354
-5.55532e-09
0.00118508
0.0354211
0.191687
0.00109528
0.0368518
0.207223
0.000647235
0.0378055
0.21811
-4.80313e-08
0.0382851
0.223715
-0.00064733
0.0382851
0.223715
-0.00109537
0.0378055
0.21811
-0.00118516
0.0368518
0.207223
-0.000827581
0.0354211
0.191687
0.0335997
0.172354
-6.64313e-08
0.00102119
0.0302808
0.162435
-7.42171e-09
0.0014573
0.0316506
0.181715
0.00134388
0.0326975
0.197061
0.000792706
0.0333829
0.207742
-5.5878e-08
0.0337244
0.213219
-0.000792815
0.0337244
0.213219
-0.00134398
0.0333829
0.207742
-0.00145739
0.0326975
0.197061
-0.00102126
0.0316506
0.181715
0.0302808
0.162435
-6.86254e-08
0.00121173
0.0252871
0.14683
-9.72817e-09
0.00172609
0.0261863
0.165797
0.00158657
0.0268634
0.180755
0.000933415
0.027303
0.191093
-6.22849e-08
0.027521
0.19637
-0.000933536
0.027521
0.19637
-0.00158668
0.027303
0.191093
-0.00172619
0.0268634
0.180755
-0.0012118
0.0261864
0.165796
0.0252871
0.14683
-6.79036e-08
0.001424
0.126813
-1.20651e-08
0.0193699
0.00201116
0.145379
0.0198608
0.00183603
0.159853
0.0202463
0.00107486
0.169783
0.0205046
-6.54122e-08
0.17483
0.0206329
-0.00107498
0.17483
0.0206329
-0.00183615
0.169783
0.0205047
-0.00201125
0.159853
0.0202464
-0.00142407
0.145379
0.0198608
0.126813
-6.3348e-08
0.0193699
2.58549e-06
0.00110927
0.030823
-3.51749e-10
3.02503e-07
0.00123337
0.0340212
2.38028e-07
0.00134228
0.0367135
9.60538e-08
0.00142551
0.0386604
-2.85473e-09
0.00146999
0.0396824
-1.01815e-07
0.00146999
0.0396824
-2.43762e-07
0.00142551
0.0386604
-3.08875e-07
0.00134228
0.0367135
-2.59211e-06
0.00123337
0.0340212
0.00110927
0.030823
-6.93899e-09
2.68976e-05
0.00398846
0.0826637
-8.26343e-10
3.35669e-05
0.0044019
0.0912415
3.01616e-05
0.004759
0.0984339
1.76423e-05
0.00502423
0.10362
-8.45384e-09
0.00516484
0.106338
-1.76593e-05
0.00516484
0.106338
-3.01791e-05
0.00502423
0.10362
-3.3585e-05
0.004759
0.0984339
-2.69158e-05
0.0044019
0.0912414
0.00398846
0.0826637
-1.86141e-08
7.20804e-05
0.00766347
0.122091
-1.38066e-09
0.000100423
0.00840257
0.134862
9.16711e-05
0.00903388
0.145511
5.40722e-05
0.00949379
0.153161
-1.39724e-08
0.00973606
0.157161
-5.41003e-05
0.00973606
0.157161
-9.16995e-05
0.00949379
0.153161
-0.000100451
0.00903388
0.145511
-7.21088e-05
0.00840258
0.134862
0.00766348
0.122091
-2.87287e-08
0.000137795
0.0111809
0.149725
-2.02113e-09
0.000198012
0.0121755
0.165564
0.000182676
0.0130155
0.17868
0.000108067
0.0136174
0.188059
-1.95341e-08
0.0139323
0.192949
-0.000108106
0.0139323
0.192949
-0.000182715
0.0136174
0.188059
-0.000198051
0.0130155
0.17868
-0.000137832
0.0121755
0.165564
0.0111809
0.149725
-3.72346e-08
0.000221174
0.0138505
0.166458
-2.79365e-09
0.000319943
0.0149736
0.184364
0.000296303
0.0159092
0.19907
0.000175414
0.0165691
0.209531
-2.52047e-08
0.0169114
0.214967
-0.000175464
0.0169114
0.214967
-0.000296352
0.0165691
0.209531
-0.000319991
0.0159092
0.19907
-0.000221219
0.0149736
0.184364
0.0138505
0.166458
-4.41709e-08
0.000317424
0.0152887
0.173409
-3.71243e-09
0.000458294
0.0164031
0.192539
0.000424647
0.0173158
0.208111
0.000251321
0.0179489
0.219123
-3.10069e-08
0.0182743
0.224825
-0.000251383
0.0182743
0.224825
-0.000424706
0.0179489
0.219123
-0.00045835
0.0173158
0.208111
-0.000317475
0.0164031
0.192539
0.0152887
0.173409
-4.94539e-08
0.000420231
0.015394
0.171829
-4.88299e-09
0.000604582
0.0163847
0.191521
0.000559877
0.0171791
0.207405
0.000331148
0.0177208
0.218567
-3.68401e-08
0.0179966
0.224324
-0.00033122
0.0179966
0.224324
-0.000559945
0.0177208
0.218566
-0.000604645
0.0171792
0.207405
-0.000420287
0.0163847
0.191521
0.015394
0.171829
-5.29722e-08
0.000524117
0.0142879
0.163017
-6.39531e-09
0.000752607
0.0150774
0.182793
0.000696257
0.0156966
0.1986
0.0004114
0.0161118
0.209636
-4.22067e-08
0.0163214
0.215305
-0.000411483
0.0163214
0.215305
-0.000696334
0.0161118
0.209636
-0.000752676
0.0156966
0.1986
-0.000524175
0.0150775
0.182793
0.0142879
0.163017
-5.44812e-08
0.000629533
0.0122399
0.148249
-8.20519e-09
0.000901361
0.012796
0.167806
0.000831248
0.0132243
0.183297
0.000490042
0.0135082
0.194038
-4.63397e-08
0.0136505
0.199531
-0.000490132
0.0136505
0.199531
-0.000831331
0.0135082
0.194037
-0.000901432
0.0132243
0.183297
-0.000629591
0.012796
0.167806
0.0122399
0.148249
-5.36975e-08
0.000738411
0.128715
-9.98965e-09
0.00959941
0.00104964
0.147934
0.00992992
0.000963402
0.162975
0.0101885
0.000565949
0.173325
0.0103633
-4.8036e-08
0.178596
0.0104509
-0.000566042
0.178596
0.010451
-0.000963486
0.173325
0.0103633
-0.00104971
0.162975
0.0101885
-0.000738466
0.147934
0.00992993
0.128715
-4.99907e-08
0.00959941
-5.03466e-06
0.000462582
0.0303654
-2.65902e-10
-7.62409e-06
0.00050868
0.0335151
-6.25462e-06
0.000547794
0.0361643
-3.50224e-06
0.000577407
0.0380802
-2.27932e-09
0.000592993
0.0390859
3.49764e-06
0.000592993
0.0390859
6.24988e-06
0.000577407
0.0380802
7.61917e-06
0.000547794
0.0361643
5.02963e-06
0.00050868
0.0335151
0.000462582
0.0303654
-5.24017e-09
-2.66976e-06
0.00159278
0.0815362
-6.60977e-10
-4.61227e-06
0.00175312
0.089999
-3.48438e-06
0.00189031
0.0970902
-1.71022e-06
0.0019922
0.102204
-6.65266e-09
0.00204612
0.104883
1.69682e-06
0.00204612
0.104883
3.47077e-06
0.0019922
0.102204
4.59822e-06
0.00189032
0.0970902
2.65538e-06
0.00175312
0.0899989
0.00159278
0.0815362
-1.41387e-08
1.08247e-05
0.00307241
0.120601
-1.11671e-09
1.55331e-05
0.00337433
0.133236
1.51899e-05
0.00363232
0.143769
9.4272e-06
0.00382125
0.151338
-1.08642e-08
0.003921
0.155295
-9.44897e-06
0.003921
0.155295
-1.52118e-05
0.00382126
0.151338
-1.55551e-05
0.00363232
0.143769
-1.08461e-05
0.00337433
0.133236
0.00307242
0.120601
-2.17151e-08
3.51356e-05
0.00456719
0.148195
-1.62499e-09
5.17629e-05
0.00499491
0.163927
4.90575e-05
0.00535791
0.176957
2.9571e-05
0.00562028
0.18628
-1.50107e-08
0.00575809
0.191142
-2.9601e-05
0.00575809
0.191142
-4.90873e-05
0.00562029
0.18628
-5.17923e-05
0.00535792
0.176957
-3.5164e-05
0.00499491
0.163927
0.00456719
0.148195
-2.81957e-08
6.93064e-05
0.00578849
0.165168
-2.21789e-09
0.000101961
0.00629576
0.18303
9.59438e-05
0.00672155
0.197712
5.7417e-05
0.00702511
0.208164
-1.91206e-08
0.00718348
0.213599
-5.7455e-05
0.00718348
0.213599
-9.59812e-05
0.00702511
0.208164
-0.000101997
0.00672156
0.197712
-6.93406e-05
0.00629577
0.18303
0.0057885
0.165168
-3.35222e-08
0.000111465
0.00654033
0.172546
-2.90803e-09
0.00016305
0.00706786
0.191715
0.000152827
0.007504
0.207339
9.11415e-05
0.00781036
0.2184
-2.32002e-08
0.00796895
0.224131
-9.11874e-05
0.00796895
0.224131
-0.000152872
0.00781036
0.2184
-0.000163092
0.007504
0.207339
-0.000111504
0.00706787
0.191715
0.00654033
0.172546
-3.76171e-08
0.000159022
0.0067334
0.171477
-3.76026e-09
0.000231413
0.00722423
0.191292
0.000216318
0.00762233
0.207301
0.000128717
0.00789765
0.218567
-2.71799e-08
0.00803896
0.224382
-0.000128771
0.00803896
0.224382
-0.000216369
0.00789766
0.218567
-0.00023146
0.00762233
0.207301
-0.000159064
0.00722424
0.191292
0.00673341
0.171477
-4.04215e-08
0.000209659
0.00637767
0.163163
-4.81328e-09
0.000304206
0.00678753
0.183136
0.000283655
0.00711319
0.19913
0.000168425
0.00733501
0.210314
-3.07568e-08
0.00744786
0.216065
-0.000168486
0.00744786
0.216065
-0.000283711
0.00733501
0.210314
-0.000304257
0.0071132
0.19913
-0.000209703
0.00678754
0.183135
0.00637767
0.163163
-4.17817e-08
0.000263809
0.0055609
0.148802
-6.01472e-09
0.000380866
0.00586547
0.168611
0.000353403
0.00610296
0.184335
0.000209133
0.00626261
0.195254
-3.34765e-08
0.00634323
0.200845
-0.000209198
0.00634323
0.200845
-0.000353464
0.00626261
0.195254
-0.000380919
0.00610297
0.184335
-0.000263853
0.00586547
0.168611
0.0055609
0.148802
-4.15648e-08
0.000321124
0.12953
-7.15863e-09
0.00442499
0.000459904
0.149042
0.00461796
0.000424507
0.164344
0.00476982
0.000250232
0.174889
0.00487323
-3.46578e-08
0.180264
0.00492539
-0.000250299
0.180264
0.00492539
-0.000424568
0.174889
0.00487323
-0.000459957
0.164344
0.00476982
-0.000321167
0.149042
0.00461796
0.12953
-3.94345e-08
0.00442499
-4.18451e-07
0.000134592
0.0302313
-1.7887e-10
-1.07325e-06
0.000149408
0.0333664
-8.39406e-07
0.000162442
0.0360016
-4.72865e-07
0.000172702
0.0379071
-1.76899e-09
0.000178192
0.0389072
4.69294e-07
0.000178192
0.0389072
8.35803e-07
0.000172702
0.0379071
1.06952e-06
0.000162442
0.0360016
4.14664e-07
0.000149408
0.0333664
0.000134592
0.0302313
-3.71485e-09
1.53956e-06
0.000533455
0.0811358
-4.66758e-10
1.41015e-06
0.000591
0.0895575
1.35065e-06
0.000641184
0.0966115
8.35366e-07
0.00067917
0.101698
-5.10246e-09
0.000699461
0.104363
-8.45608e-07
0.000699461
0.104363
-1.36091e-06
0.00067917
0.101698
-1.42034e-06
0.000641185
0.0966115
-1.54951e-06
0.000591001
0.0895575
0.000533456
0.0811358
-1.00285e-08
7.25115e-06
0.00109902
0.120028
-8.03896e-10
9.77797e-06
0.00121397
0.132611
9.05088e-06
0.00131347
0.143098
5.40653e-06
0.00138736
0.150633
-8.25316e-09
0.00142667
0.154574
-5.42305e-06
0.00142667
0.154574
-9.06733e-06
0.00138736
0.150633
-9.79432e-06
0.00131347
0.143098
-7.26694e-06
0.00121397
0.132611
0.00109902
0.120028
-1.56194e-08
1.71864e-05
0.00170395
0.147573
-1.17223e-09
2.45832e-05
0.00187432
0.163259
2.28891e-05
0.00202053
0.176251
1.36408e-05
0.00212755
0.185549
-1.12925e-08
0.00218415
0.190398
-1.36633e-05
0.00218415
0.190398
-2.29113e-05
0.00212755
0.185549
-2.4605e-05
0.00202053
0.176251
-1.72072e-05
0.00187432
0.163259
0.00170395
0.147573
-2.04109e-08
3.13753e-05
0.00222965
0.164611
-1.58832e-09
4.55827e-05
0.00243968
0.182451
4.25768e-05
0.00261795
0.197118
2.53619e-05
0.00274664
0.207563
-1.42254e-08
0.00281425
0.212994
-2.53902e-05
0.00281425
0.212994
-4.26045e-05
0.00274664
0.207563
-4.56095e-05
0.00261795
0.197118
-3.14004e-05
0.00243968
0.182451
0.00222965
0.164611
-2.4396e-08
4.93669e-05
0.0025861
0.17214
-2.05888e-09
7.19271e-05
0.00281219
0.19132
6.72411e-05
0.00300138
0.20696
4.00327e-05
0.00313601
0.218037
-1.70571e-08
0.0032062
0.223779
-4.00665e-05
0.00320621
0.223779
-6.72738e-05
0.00313601
0.218037
-7.19581e-05
0.00300139
0.20696
-4.93954e-05
0.0028122
0.19132
0.0025861
0.17214
-2.75357e-08
7.02672e-05
0.00272242
0.17127
-2.61495e-09
0.000102299
0.00293956
0.191133
9.56066e-05
0.00311808
0.207191
5.68757e-05
0.00324321
0.218498
-1.97528e-08
0.0033079
0.224338
-5.69147e-05
0.00330791
0.224338
-9.56439e-05
0.00324321
0.218498
-0.000102334
0.00311808
0.207191
-7.02984e-05
0.00293956
0.191133
0.00272243
0.17127
-2.98154e-08
9.31385e-05
0.00262888
0.163164
-3.26911e-09
0.000135423
0.00281589
0.183217
0.000126378
0.00296664
0.19929
7.50711e-05
0.00307067
0.210538
-2.21506e-08
0.00312396
0.216324
-7.51147e-05
0.00312396
0.216324
-0.00012642
0.00307067
0.210538
-0.00013546
0.00296664
0.19929
-9.31715e-05
0.00281589
0.183217
0.00262888
0.163164
-3.11539e-08
0.00011786
0.00233179
0.148981
-3.99084e-09
0.000170495
0.0024755
0.168899
0.000158409
0.00258877
0.184725
9.38235e-05
0.00266569
0.195724
-2.40147e-08
0.00270475
0.201358
-9.38705e-05
0.00270475
0.201358
-0.000158453
0.00266569
0.195724
-0.000170534
0.00258877
0.184725
-0.000117894
0.0024755
0.168899
0.00233179
0.148981
-3.14883e-08
0.000142434
0.129833
-4.65233e-09
0.00188662
0.000204972
0.149475
0.00198048
0.000189869
0.164893
0.00205449
0.000112175
0.175527
0.00210514
-2.50233e-08
0.18095
0.00213081
-0.000112223
0.18095
0.00213081
-0.000189914
0.175527
0.00210514
-0.000205011
0.164893
0.00205449
-0.000142467
0.149475
0.00198048
0.129833
-3.06671e-08
0.00188662
-1.10364e-06
5.66343e-05
0.0301757
-1.20375e-10
-1.61543e-06
6.21188e-05
0.0333048
-1.33586e-06
6.67921e-05
0.0359346
-7.50179e-07
7.04051e-05
0.0378361
-1.34381e-09
7.23067e-05
0.0388341
7.47491e-07
7.23067e-05
0.0388341
1.33321e-06
7.04052e-05
0.0378361
1.61278e-06
6.67923e-05
0.0359346
1.10106e-06
6.2119e-05
0.0333048
5.66345e-05
0.0301757
-2.53049e-09
-1.47255e-06
0.000208507
0.0809854
-3.38698e-10
-2.25819e-06
0.000230029
0.0893904
-1.91381e-06
0.000248613
0.0964294
-1.06425e-06
0.000262658
0.101505
-3.84219e-09
0.000270126
0.104164
1.05658e-06
0.000270126
0.104164
1.9063e-06
0.000262658
0.101505
2.25074e-06
0.000248613
0.0964294
1.46536e-06
0.000230029
0.0893904
0.000208507
0.0809854
-6.9394e-09
1.00705e-07
0.000424323
0.119812
-5.74092e-10
-3.90605e-08
0.000468686
0.132372
7.47542e-08
0.000506939
0.142839
1.24363e-07
0.000535379
0.150361
-6.15152e-09
0.000550524
0.154293
-1.36587e-07
0.000550525
0.154293
-8.7325e-08
0.00053538
0.150361
2.72339e-08
0.000506939
0.142839
-1.11916e-07
0.000468687
0.132372
0.000424324
0.119812
-1.08507e-08
3.4436e-06
0.000662055
0.147331
-8.17079e-10
4.99403e-06
0.000729829
0.162997
4.81677e-06
0.000787995
0.175971
2.94538e-06
0.000830739
0.185255
-8.35425e-09
0.000853399
0.190098
-2.96201e-06
0.000853399
0.190098
-4.833e-06
0.000830739
0.185255
-5.00977e-06
0.000787997
0.175971
-3.45838e-06
0.000729831
0.162997
0.000662057
0.147331
-1.42527e-08
8.79233e-06
0.000876968
0.164387
-1.08138e-09
1.29233e-05
0.000963051
0.182213
1.225e-05
0.00103627
0.19687
7.37355e-06
0.00108941
0.207309
-1.04252e-08
0.00111742
0.212737
-7.39424e-06
0.00111742
0.212737
-1.22702e-05
0.00108941
0.207309
-1.29425e-05
0.00103627
0.19687
-8.81025e-06
0.000963053
0.182213
0.000876971
0.164387
-1.71464e-08
1.5923e-05
0.00103153
0.17197
-1.36947e-09
2.34133e-05
0.0011269
0.191149
2.209e-05
0.00120698
0.206791
1.32335e-05
0.00126434
0.217871
-1.23796e-08
0.00129435
0.223615
-1.3258e-05
0.00129435
0.223615
-2.21137e-05
0.00126434
0.217871
-2.34357e-05
0.00120699
0.206791
-1.59436e-05
0.00112691
0.191149
0.00103153
0.17197
-1.94904e-08
2.45143e-05
0.00110133
0.171176
-1.69753e-09
3.59802e-05
0.00119552
0.191053
3.38637e-05
0.00127331
0.207127
2.02361e-05
0.00132823
0.218448
-1.42093e-08
0.00135673
0.224295
-2.02641e-05
0.00135673
0.224295
-3.38906e-05
0.00132823
0.218448
-3.60053e-05
0.00127331
0.207127
-2.45369e-05
0.00119552
0.191053
0.00110133
0.171176
-2.12943e-08
3.42338e-05
0.00107769
0.163153
-2.06915e-09
5.01465e-05
0.00116109
0.183235
4.70655e-05
0.00122871
0.199338
2.80549e-05
0.00127571
0.210609
-1.58395e-08
0.00129988
0.216409
-2.80861e-05
0.00129988
0.216409
-4.70951e-05
0.00127571
0.210609
-5.01738e-05
0.00122871
0.199338
-3.42579e-05
0.00116109
0.183235
0.0010777
0.163153
-2.25248e-08
4.51199e-05
0.000967122
0.149046
-2.46301e-09
6.56402e-05
0.00103312
0.169006
6.12471e-05
0.00108546
0.184873
3.63694e-05
0.00112125
0.195903
-1.71611e-08
0.00113948
0.201555
-3.64031e-05
0.00113948
0.201555
-6.12788e-05
0.00112125
0.195903
-6.56689e-05
0.00108546
0.184873
-4.51449e-05
0.00103312
0.169006
0.000967123
0.149046
-2.31521e-08
5.62952e-05
0.129954
-2.81088e-09
0.000789705
8.14109e-05
0.149649
0.000834244
7.57024e-05
0.165115
0.000869539
4.48272e-05
0.175785
0.000893793
-1.80291e-08
0.181228
0.000906117
-4.48625e-05
0.181228
0.000906117
-7.57354e-05
0.175785
0.000893793
-8.14403e-05
0.165115
0.000869539
-5.63204e-05
0.149649
0.000834244
0.129954
-2.31118e-08
0.000789705
-2.24009e-07
1.42022e-05
0.0301617
-7.42374e-11
-3.7823e-07
1.57857e-05
0.0332892
-3.14192e-07
1.7228e-05
0.0359173
-1.78981e-07
1.84067e-05
0.0378176
-9.83568e-10
1.90423e-05
0.0388149
1.77022e-07
1.90423e-05
0.0388149
3.12278e-07
1.84067e-05
0.0378176
3.76364e-07
1.72281e-05
0.0359173
2.22254e-07
1.57858e-05
0.0332892
1.42024e-05
0.0301617
-1.67235e-09
-2.46065e-07
6.38818e-05
0.080936
-2.15954e-10
-4.96662e-07
7.11389e-05
0.0893353
-4.39385e-07
7.75809e-05
0.096369
-2.50339e-07
8.25659e-05
0.10144
-2.79593e-09
8.52509e-05
0.104097
2.44777e-07
8.5251e-05
0.104097
4.33969e-07
8.2566e-05
0.10144
4.91404e-07
7.75812e-05
0.096369
2.41019e-07
7.11395e-05
0.0893353
6.38821e-05
0.080936
-4.63251e-09
3.47393e-07
0.000140977
0.119735
-3.67378e-10
3.3543e-07
0.000156857
0.132286
3.09187e-07
0.000170792
0.142746
1.91788e-07
0.00018133
0.150262
-4.46349e-09
0.000186986
0.154192
-2.00654e-07
0.000186986
0.154192
-3.17824e-07
0.00018133
0.150262
-3.4368e-07
0.000170792
0.142746
-3.54909e-07
0.000156858
0.132286
0.000140978
0.119735
-7.24882e-09
1.65847e-06
0.000230275
0.147241
-5.24115e-10
2.28125e-06
0.000255513
0.162897
2.12094e-06
0.000277457
0.175864
1.26829e-06
0.000293798
0.185144
-6.02231e-09
0.000302521
0.189984
-1.28024e-06
0.000302521
0.189984
-2.13256e-06
0.000293799
0.185144
-2.29233e-06
0.000277458
0.175864
-1.6687e-06
0.000255514
0.162897
0.000230276
0.147241
-9.62018e-09
3.75481e-06
0.000314754
0.164299
-6.89714e-10
5.39807e-06
0.000347791
0.182119
5.04702e-06
0.000376208
0.196772
3.01251e-06
0.000397079
0.207208
-7.47041e-09
0.000408147
0.212635
-3.02731e-06
0.000408147
0.212635
-5.06135e-06
0.000397079
0.207208
-5.41165e-06
0.000376209
0.196772
-3.76725e-06
0.000347792
0.182119
0.000314756
0.164299
-1.16699e-08
6.6072e-06
0.000379157
0.171899
-8.63747e-10
9.6227e-06
0.000416687
0.191077
9.02213e-06
0.000448537
0.206719
5.38388e-06
0.000471602
0.217801
-8.81279e-09
0.000483745
0.223545
-5.40131e-06
0.000483745
0.223545
-9.03893e-06
0.000471603
0.2178
-9.63847e-06
0.000448538
0.206719
-6.62152e-06
0.000416688
0.191077
0.000379159
0.171899
-1.33721e-08
1.01123e-05
0.000412651
0.171132
-1.05246e-09
1.47884e-05
0.00045053
0.191014
1.38783e-05
0.000482151
0.207095
8.27768e-06
0.000504708
0.218421
-1.00525e-08
0.000516484
0.224271
-8.29751e-06
0.000516484
0.224271
-1.38973e-05
0.000504709
0.218421
-1.48061e-05
0.000482152
0.207095
-1.01282e-05
0.000450532
0.191014
0.000412653
0.171132
-1.47451e-08
1.41411e-05
0.000410315
0.163141
-1.25315e-09
2.06904e-05
0.000444549
0.183235
1.93935e-05
0.00047258
0.199349
1.15499e-05
0.000492245
0.21063
-1.11618e-08
0.000502409
0.216434
-1.15718e-05
0.000502409
0.216434
-1.94144e-05
0.000492246
0.21063
-2.07097e-05
0.000472581
0.199349
-1.41582e-05
0.00044455
0.183235
0.000410317
0.163141