/*--------------------------------*- C++ -*----------------------------------*\
| =========                 |                                                 |
| \\      /  F ield         | OpenFOAM: The Open Source CFD Toolbox           |
|  \\    /   O peration     | Version:  2106                                  |
|   \\  /    A nd           | Website:  www.openfoam.com                      |
|    \\/     M anipulation  |                                                 |
\*---------------------------------------------------------------------------*/
FoamFile
{
    version     2.0;
    format      ascii;
    arch        "LSB;label=32;scalar=64";
    class       surfaceScalarField;
    location    "0.21";
    object      phi;
}
// * * * * * * * * * * * * * * * * * * * * * * * * * * * * * * * * * * * * * //

dimensions      [0 3 -1 0 0 0 0];

oriented        oriented;

internalField   nonuniform List<scalar> 
29100
(
0.00110899
0.139235
0.0770913
-2.76899e-10
0.00136745
0.143656
0.0847192
0.00117369
0.14674
0.0910927
0.000668519
0.148787
0.0956543
-1.62524e-09
0.149813
0.09803
-0.000668522
0.149813
0.09803
-0.00117369
0.148787
0.0956543
-0.00136745
0.14674
0.0910927
-0.00110899
0.143656
0.0847192
0.139235
0.0770913
-6.03587e-09
0.00219841
0.190809
0.147921
-6.35217e-10
0.00305428
0.194748
0.160769
0.00272358
0.197334
0.171276
0.0015752
0.198923
0.178705
-4.28065e-09
0.199696
0.182544
-0.00157521
0.199696
0.182544
-0.00272358
0.198923
0.178705
-0.00305429
0.197334
0.171276
-0.00219843
0.194748
0.160769
0.190809
0.147921
-1.39132e-08
0.00277277
0.198593
0.175395
-8.22946e-10
0.00392093
0.200794
0.189604
0.00351756
0.202138
0.201041
0.00203632
0.202801
0.209053
-6.36588e-09
0.203092
0.21317
-0.00203633
0.203092
0.21317
-0.00351758
0.202801
0.209053
-0.00392095
0.202138
0.201041
-0.00277278
0.200794
0.189604
0.198593
0.175395
-2.04299e-08
0.00312524
0.184051
0.181628
-1.07832e-09
0.00435603
0.184571
0.195873
0.00389753
0.184751
0.207188
0.00225145
0.1846
0.215054
-8.74378e-09
0.184473
0.219077
-0.00225147
0.184473
0.219077
-0.00389755
0.1846
0.215054
-0.00435605
0.184751
0.207188
-0.00312526
0.184571
0.195873
0.184051
0.181628
-2.58082e-08
0.00328306
0.159328
0.175909
-1.45035e-09
0.00450941
0.158606
0.189702
0.00402106
0.157947
0.200537
0.00231877
0.157247
0.208019
-1.1677e-08
0.156844
0.211831
-0.00231879
0.156844
0.211831
-0.00402109
0.157247
0.208019
-0.00450943
0.157947
0.200537
-0.00328309
0.158606
0.189702
0.159328
0.175909
-3.06985e-08
0.00330232
0.131338
0.163416
-1.852e-09
0.00448516
0.129854
0.176616
0.00398799
0.128699
0.18689
0.00229732
0.127715
0.193943
-1.54598e-08
0.127177
0.197526
-0.00229735
0.127177
0.197526
-0.00398802
0.127715
0.193943
-0.0044852
0.128699
0.18689
-0.00330235
0.129854
0.176616
0.131338
0.163416
-3.53346e-08
0.00324909
0.103866
0.147209
-2.40189e-09
0.00437548
0.102025
0.159831
0.00388137
0.100657
0.169583
0.00223476
0.0995968
0.176242
-2.04e-08
0.0990343
0.179616
-0.0022348
0.0990343
0.179616
-0.00388141
0.0995968
0.176242
-0.00437552
0.100657
0.169583
-0.00324913
0.102025
0.159831
0.103866
0.147209
-3.9983e-08
0.0031573
0.0788607
0.129094
-3.26692e-09
0.00424068
0.0769395
0.141213
0.00375957
0.0755677
0.150519
0.00216505
0.0745827
0.156843
-2.67973e-08
0.0740766
0.160039
-0.0021651
0.0740766
0.160039
-0.00375962
0.0745827
0.156843
-0.00424073
0.0755677
0.150519
-0.00315734
0.0769394
0.141213
0.0788607
0.129094
-4.47768e-08
0.00306708
0.0571826
0.110115
-3.94819e-09
0.00414121
0.0553449
0.121814
0.00367282
0.0541334
0.130753
0.00211444
0.0533323
0.1368
-3.46374e-08
0.0529352
0.139849
-0.00211451
0.0529352
0.139849
-0.00367288
0.0533322
0.1368
-0.00414127
0.0541334
0.130753
-0.00306714
0.0553449
0.121814
0.0571825
0.110115
-4.93949e-08
0.00321175
0.0908678
-4.35179e-09
0.0388657
0.00424045
0.102218
0.0374746
0.00371037
0.110851
0.036564
0.00211811
0.116669
0.036004
-4.30992e-08
0.119596
0.0357286
-0.00211819
0.119596
0.0357286
-0.00371045
0.116669
0.036004
-0.00424052
0.110851
0.0365639
-0.00321181
0.102218
0.0374746
0.0908678
-5.28541e-08
0.0388656
-0.000227794
0.0327198
0.0445994
-4.89958e-10
-0.000229185
0.0355343
0.0491862
-0.000161739
0.0379144
0.0531108
-8.06531e-05
0.0396121
0.0559611
-1.8648e-09
0.0404896
0.0574598
8.06488e-05
0.0404896
0.0574598
0.000161734
0.0396121
0.0559611
0.000229179
0.0379144
0.0531108
0.000227787
0.0355343
0.0491862
0.0327198
0.0445994
-7.856e-09
2.0838e-05
0.0706414
0.109979
-7.19682e-10
0.000180716
0.075569
0.120574
0.000232271
0.0796653
0.129474
0.000159897
0.0825234
0.135867
-5.27441e-09
0.0839882
0.139205
-0.000159909
0.0839882
0.139205
-0.000232284
0.0825234
0.135867
-0.000180732
0.0796653
0.129474
-2.08555e-05
0.075569
0.120574
0.0706415
0.109979
-1.9633e-08
0.000473428
0.0960453
0.149518
-1.07897e-09
0.000819968
0.101481
0.163346
0.000812067
0.105934
0.17478
0.000499394
0.108972
0.182917
-9.20411e-09
0.110514
0.187143
-0.000499414
0.110514
0.187143
-0.000812088
0.108972
0.182917
-0.000819993
0.105934
0.17478
-0.000473455
0.101481
0.163346
0.0960453
0.149518
-2.98551e-08
0.000969666
0.107748
0.168955
-1.42392e-09
0.00148827
0.112621
0.184215
0.00140628
0.116555
0.19665
0.000841778
0.119168
0.205422
-1.35215e-08
0.120478
0.209954
-0.000841806
0.120478
0.209954
-0.00140631
0.119168
0.205422
-0.0014883
0.116555
0.19665
-0.000969702
0.112621
0.184215
0.107748
0.168955
-3.83699e-08
0.00143651
0.108029
0.174192
-1.86953e-09
0.00209456
0.11183
0.189835
0.00193651
0.114841
0.202409
0.0011441
0.116774
0.211205
-1.85128e-08
0.117727
0.215727
-0.00114413
0.117727
0.215727
-0.00193655
0.116774
0.211205
-0.0020946
0.114841
0.202409
-0.00143655
0.11183
0.189835
0.108029
0.174192
-4.56583e-08
0.00183827
0.100061
0.169545
-2.44537e-09
0.00260393
0.102681
0.185
0.00237667
0.10469
0.197268
0.00139349
0.105921
0.20578
-2.45882e-08
0.10651
0.210136
-0.00139354
0.10651
0.210136
-0.00237672
0.105921
0.20578
-0.00260398
0.10469
0.197268
-0.00183832
0.102681
0.185
0.100061
0.169545
-5.17884e-08
0.00215989
0.0869325
0.158178
-3.37553e-09
0.00301013
0.0884869
0.173175
0.00272749
0.0896085
0.184948
0.00159239
0.0902423
0.193056
-3.18983e-08
0.0905322
0.197186
-0.00159246
0.0905322
0.197186
-0.00272755
0.0902423
0.193056
-0.00301019
0.0896085
0.184948
-0.00215995
0.0884869
0.173175
0.0869325
0.158178
-5.68222e-08
0.00240153
0.0712342
0.142391
-4.72653e-09
0.00332967
0.0719255
0.156846
0.00300925
0.0723638
0.168084
0.0017537
0.0725694
0.175771
-4.04005e-08
0.0726528
0.179672
-0.00175378
0.0726528
0.179672
-0.00300933
0.0725694
0.175771
-0.00332974
0.0723638
0.168084
-0.0024016
0.0719255
0.156846
0.0712342
0.142391
-6.03168e-08
0.00259902
0.0549297
0.123821
-6.44185e-09
0.00361509
0.0549721
0.137751
0.00326466
0.0549747
0.148492
0.0018997
0.0549403
0.155794
-4.91805e-08
0.0549158
0.159486
-0.0018998
0.0549158
0.159486
-0.00326475
0.0549403
0.155794
-0.00361517
0.0549747
0.148492
-0.00259908
0.0549721
0.137751
0.0549296
0.123821
-6.23865e-08
0.00290791
0.103599
-8.55466e-09
0.0392907
0.00400007
0.117073
0.0390242
0.00357722
0.127384
0.0388641
0.00206731
0.134355
0.0387641
-5.60896e-08
0.137867
0.0387112
-0.00206741
0.137867
0.0387112
-0.00357732
0.134355
0.0387641
-0.00400015
0.127384
0.0388641
-0.00290798
0.117073
0.0390242
0.103599
-6.16024e-08
0.0392907
4.21629e-05
0.00810008
0.0364571
-2.9982e-10
3.98232e-05
0.00893911
0.0402495
3.27581e-05
0.00965338
0.0434645
1.80156e-05
0.0101836
0.0457922
-2.03397e-09
0.0104632
0.0470146
-1.80193e-05
0.0104632
0.0470146
-3.27624e-05
0.0101836
0.0457922
-3.98286e-05
0.00965338
0.0434645
-4.21694e-05
0.00893911
0.0402495
0.00810008
0.0364571
-7.552e-09
0.000248112
0.0242468
0.0935838
-7.28728e-10
0.000333401
0.02637
0.103058
0.000295534
0.0281481
0.111017
0.00017164
0.0294268
0.116747
-5.79094e-09
0.0300943
0.119746
-0.000171651
0.0300943
0.119746
-0.000295547
0.0294268
0.116747
-0.000333416
0.0281481
0.111017
-0.000248128
0.02637
0.103058
0.0242468
0.0935838
-1.87455e-08
0.000501349
0.0402813
0.132982
-1.12796e-09
0.000705576
0.043287
0.146225
0.000635764
0.0457647
0.157233
0.000371482
0.0475016
0.165107
-9.5352e-09
0.0483988
0.16921
-0.000371501
0.0483988
0.16921
-0.000635785
0.0475016
0.165107
-0.000705599
0.0457647
0.157233
-0.000501375
0.043287
0.146225
0.0402813
0.132982
-2.86676e-08
0.000777026
0.0516743
0.156785
-1.65008e-09
0.00110761
0.0549444
0.172227
0.00100701
0.0576009
0.184914
0.000589759
0.0594194
0.193921
-1.3703e-08
0.0603482
0.198595
-0.000589787
0.0603482
0.198595
-0.00100704
0.0594194
0.193921
-0.00110764
0.0576009
0.184914
-0.000777061
0.0549444
0.172227
0.0516743
0.156785
-3.67249e-08
0.00105532
0.0571703
0.167641
-2.29956e-09
0.00150189
0.0601992
0.184133
0.00136903
0.0626209
0.197522
0.000801959
0.0642379
0.206954
-1.84119e-08
0.065053
0.211824
-0.000801996
0.065053
0.211824
-0.00136907
0.064238
0.206954
-0.00150193
0.0626209
0.197522
-0.00105536
0.0601992
0.184133
0.0571703
0.167641
-4.32273e-08
0.00132195
0.0571627
0.168231
-3.09366e-09
0.00186788
0.0596463
0.185007
0.00170149
0.0615906
0.198464
0.000996
0.0628529
0.207871
-2.38086e-08
0.0634794
0.212706
-0.000996048
0.0634794
0.212706
-0.00170154
0.0628529
0.207871
-0.00186793
0.0615906
0.198464
-0.00132199
0.0596463
0.185007
0.0571627
0.168231
-4.82254e-08
0.00156138
0.052802
0.160977
-4.29711e-09
0.00219157
0.0546189
0.177572
0.00199399
0.0559988
0.190737
0.00116646
0.0568664
0.19987
-2.98265e-08
0.0572895
0.204543
-0.00116652
0.0572895
0.204543
-0.00199405
0.0568664
0.19987
-0.00219163
0.0559988
0.190737
-0.00156143
0.0546189
0.177572
0.0528021
0.160977
-5.1686e-08
0.00176404
0.0454856
0.147943
-6.09161e-09
0.00247084
0.0466394
0.164119
0.0022476
0.0474846
0.176822
0.00131448
0.0479993
0.185572
-3.61064e-08
0.0482462
0.19003
-0.00131455
0.0482462
0.19003
-0.00224766
0.0479993
0.185572
-0.0024709
0.0474847
0.176822
-0.00176409
0.0466394
0.164119
0.0454856
0.147943
-5.30837e-08
0.00194275
0.0365591
0.130804
-8.32403e-09
0.00272538
0.0371322
0.146476
0.00247735
0.0375523
0.158673
0.00144737
0.0378054
0.167018
-4.17828e-08
0.0379264
0.171253
-0.00144745
0.0379265
0.171253
-0.00247742
0.0378054
0.167018
-0.00272544
0.0375523
0.158673
-0.0019428
0.0371322
0.146476
0.0365591
0.130804
-5.2291e-08
0.00216728
0.110867
-9.79924e-09
0.0271234
0.00300887
0.126055
0.0273089
0.00271532
0.137766
0.0274642
0.00157852
0.145728
0.0275691
-4.50073e-08
0.149753
0.0276194
-0.00157861
0.149753
0.0276194
-0.0027154
0.145728
0.0275691
-0.00300894
0.137766
0.0274642
-0.00216733
0.126055
0.0273089
0.110867
-4.74811e-08
0.0271234
-2.96383e-05
0.00315346
0.0333333
-3.23049e-10
-4.21033e-05
0.00346914
0.0367928
-3.46918e-05
0.00373737
0.0397197
-1.92975e-05
0.0039359
0.0418409
-1.46648e-09
0.00403968
0.0429557
1.92942e-05
0.00403968
0.0429557
3.4688e-05
0.0039359
0.0418409
4.20988e-05
0.00373737
0.0397197
2.9633e-05
0.00346914
0.0367928
0.00315346
0.0333333
-6.24822e-09
-5.97375e-06
0.00947012
0.0872731
-6.41586e-10
-5.92786e-06
0.0103545
0.0961724
-1.22315e-06
0.0111053
0.103644
1.5102e-06
0.0116494
0.109031
-4.22867e-09
0.0119342
0.111853
-1.51959e-06
0.0119342
0.111853
1.21297e-06
0.0116494
0.109031
5.91471e-06
0.0111053
0.103644
5.95919e-06
0.0103545
0.0961724
0.00947012
0.0872731
-1.57222e-08
7.01037e-05
0.0164403
0.125942
-1.00874e-09
0.000107589
0.0178497
0.138692
0.000104673
0.0190362
0.149305
6.44638e-05
0.0198824
0.156914
-7.50051e-09
0.0203228
0.160886
-6.44797e-05
0.0203228
0.160886
-0.00010469
0.0198824
0.156914
-0.000107609
0.0190362
0.149305
-7.01251e-05
0.0178497
0.138692
0.0164403
0.125942
-2.38362e-08
0.000183915
0.0222768
0.150765
-1.42946e-09
0.000274761
0.0239958
0.16599
0.0002597
0.0254266
0.178539
0.000156102
0.0264299
0.187477
-1.09572e-08
0.0269482
0.192125
-0.000156124
0.0269482
0.192125
-0.000259724
0.0264299
0.187477
-0.000274787
0.0254266
0.178539
-0.000183943
0.0239958
0.16599
0.0222768
0.150765
-3.0382e-08
0.000322424
0.0259869
0.163609
-1.97969e-09
0.000472833
0.0277627
0.180216
0.000442038
0.0292187
0.193761
0.000263334
0.0302214
0.203341
-1.47219e-08
0.0307346
0.208301
-0.000263364
0.0307346
0.208301
-0.000442069
0.0302214
0.203341
-0.000472865
0.0292187
0.193761
-0.000322457
0.0277627
0.180216
0.0259869
0.163609
-3.55558e-08
0.000473242
0.0272632
0.166481
-2.79678e-09
0.000683694
0.028886
0.183673
0.000634609
0.03019
0.197542
0.000376142
0.0310703
0.20728
-1.88757e-08
0.0315161
0.2123
-0.00037618
0.0315161
0.2123
-0.000634648
0.0310703
0.20728
-0.000683732
0.03019
0.197542
-0.00047328
0.028886
0.183673
0.0272633
0.166481
-3.92393e-08
0.000624294
0.0262767
0.161339
-3.97699e-09
0.000892924
0.0276098
0.17858
0.000825068
0.0286531
0.192342
0.000487544
0.0293428
0.201935
-2.32876e-08
0.0296882
0.206858
-0.00048759
0.0296882
0.206858
-0.000825113
0.0293428
0.201935
-0.000892968
0.0286532
0.192342
-0.000624334
0.0276098
0.17858
0.0262767
0.161339
-4.1289e-08
0.000767468
0.0234833
0.149969
-5.36001e-09
0.0010937
0.0244615
0.166941
0.00100818
0.0252057
0.180355
0.00059458
0.0256887
0.189639
-2.75527e-08
0.0259284
0.194384
-0.000594635
0.0259284
0.194384
-0.00100823
0.0256888
0.189639
-0.00109375
0.0252057
0.180355
-0.000767509
0.0244615
0.166941
0.0234833
0.149969
-4.13052e-08
0.000908375
0.019464
0.133915
-7.08588e-09
0.00129322
0.0200847
0.150468
0.00118827
0.0205523
0.163431
0.00069889
0.0208542
0.172342
-3.08271e-08
0.0210035
0.176877
-0.00069895
0.0210035
0.176877
-0.00118833
0.0208542
0.172342
-0.00129327
0.0205523
0.163431
-0.000908415
0.0200847
0.150468
0.019464
0.133915
-3.93333e-08
0.00107636
0.114455
-9.04984e-09
0.0148004
0.0015152
0.130572
0.0151288
0.00138062
0.143065
0.0153879
0.000807274
0.151593
0.0155621
-3.16819e-08
0.155915
0.0156484
-0.000807335
0.155915
0.0156484
-0.00138068
0.151593
0.0155621
-0.00151525
0.143065
0.0153879
-0.00107639
0.130572
0.0151288
0.114455
-3.39532e-08
0.0148004
4.04634e-06
0.000872315
0.0324569
-2.20595e-10
2.27684e-06
0.000971958
0.0358226
1.79204e-06
0.00105957
0.0386606
9.01099e-07
0.00112681
0.040715
-1.34538e-09
0.00116273
0.0417938
-9.03761e-07
0.00116273
0.0417938
-1.7951e-06
0.00112681
0.040715
-2.28022e-06
0.00105957
0.0386606
-4.05048e-06
0.000971959
0.0358226
0.000872316
0.0324569
-4.78312e-09
2.53448e-05
0.00314393
0.0849762
-5.10105e-10
3.13868e-05
0.00347007
0.0936683
2.76936e-05
0.00375219
0.100955
1.60545e-05
0.00396162
0.106208
-3.6914e-09
0.00407263
0.108959
-1.60621e-05
0.00407263
0.108959
-2.77022e-05
0.00396162
0.106208
-3.13963e-05
0.00375219
0.100955
-2.53554e-05
0.00347008
0.0936683
0.00314393
0.0849762
-1.18738e-08
6.15596e-05
0.00601243
0.123012
-8.26514e-10
8.50414e-05
0.00658526
0.135554
7.70633e-05
0.00707478
0.145991
4.52738e-05
0.00743063
0.153477
-6.26081e-09
0.00761791
0.157386
-4.52865e-05
0.00761791
0.157386
-7.70772e-05
0.00743063
0.153477
-8.50566e-05
0.00707478
0.145991
-6.15762e-05
0.00658526
0.135554
0.00601243
0.123012
-1.82561e-08
0.000112556
0.00870896
0.147956
-1.22375e-09
0.00016093
0.00946596
0.163061
0.0001479
0.0101051
0.175521
8.73073e-05
0.0105617
0.184407
-8.87792e-09
0.0108001
0.189031
-8.73253e-05
0.0108001
0.189031
-0.000147919
0.0105617
0.184407
-0.00016095
0.0101051
0.175521
-0.000112577
0.00946596
0.163061
0.00870897
0.147956
-2.33343e-08
0.000175995
0.0107025
0.161439
-1.73069e-09
0.000253765
0.0115415
0.178063
0.000234452
0.0122402
0.191645
0.000138603
0.0127309
0.201268
-1.15814e-08
0.0129849
0.206255
-0.000138626
0.0129849
0.206255
-0.000234476
0.0127309
0.201268
-0.00025379
0.0122402
0.191645
-0.00017602
0.0115415
0.178063
0.0107025
0.161439
-2.72657e-08
0.000248156
0.0117188
0.165217
-2.3528e-09
0.000357371
0.0125359
0.182569
0.000330531
0.0132046
0.196604
0.000195405
0.0136661
0.20648
-1.43999e-08
0.0139028
0.211578
-0.000195433
0.0139028
0.211578
-0.00033056
0.0136662
0.20648
-0.0003574
0.0132046
0.196604
-0.000248184
0.0125359
0.182569
0.0117188
0.165217
-3.00236e-08
0.000324272
0.0117085
0.161025
-3.19683e-09
0.000465447
0.0124209
0.178554
0.000430368
0.0129917
0.19259
0.000254311
0.0133787
0.202398
-1.72166e-08
0.0135752
0.20744
-0.000254345
0.0135752
0.20744
-0.000430401
0.0133787
0.202398
-0.000465479
0.0129917
0.19259
-0.000324302
0.0124209
0.178554
0.0117085
0.161025
-3.14766e-08
0.000400305
0.0107895
0.150488
-4.3295e-09
0.000573698
0.0113454
0.167843
0.000530099
0.011781
0.181609
0.000312989
0.0120717
0.191164
-1.97412e-08
0.0122179
0.196054
-0.000313028
0.0122179
0.196054
-0.000530135
0.0120717
0.191164
-0.000573732
0.011781
0.181609
-0.000400336
0.0113454
0.167843
0.0107895
0.150488
-3.13941e-08
0.00047699
0.00918443
0.135043
-5.79478e-09
0.000682195
0.00956567
0.152042
0.000628588
0.00986014
0.165405
0.000370347
0.0100547
0.174617
-2.14677e-08
0.0101522
0.179313
-0.000370388
0.0101522
0.179313
-0.000628626
0.0100548
0.174617
-0.000682229
0.00986015
0.165405
-0.000477019
0.00956568
0.152042
0.00918443
0.135043
-2.96536e-08
0.000559327
0.115917
-6.94967e-09
0.0071625
0.000792438
0.13252
0.0073842
0.000725985
0.145434
0.00755749
0.000426012
0.154273
0.00767497
-2.15657e-08
0.15876
0.00773384
-0.000426054
0.15876
0.00773384
-0.000726023
0.154273
0.00767498
-0.00079247
0.145434
0.0075575
-0.000559353
0.13252
0.00738421
0.115917
-2.57179e-08
0.0071625
-4.49499e-06
0.000386313
0.0320751
-1.52517e-10
-6.81643e-06
0.000424397
0.0354005
-5.70181e-06
0.000456437
0.0382031
-3.213e-06
0.000480499
0.040232
-1.12759e-09
0.000493126
0.0412975
3.21068e-06
0.000493126
0.0412975
5.69933e-06
0.000480499
0.040232
6.81364e-06
0.000456438
0.0382031
4.49191e-06
0.000424397
0.0354005
0.000386314
0.0320751
-3.46896e-09
-3.16904e-06
0.00129104
0.0840746
-3.33375e-10
-5.16706e-06
0.00141872
0.092676
-4.19963e-06
0.00152749
0.0998832
-2.20593e-06
0.0016078
0.105079
-3.02786e-09
0.00165019
0.1078
2.19972e-06
0.00165019
0.1078
4.19302e-06
0.0016078
0.105079
5.15969e-06
0.00152749
0.0998832
3.16106e-06
0.00141872
0.092676
0.00129104
0.0840746
-8.619e-09
6.95359e-06
0.00244704
0.121849
-6.11715e-10
9.98879e-06
0.00268209
0.134287
9.85307e-06
0.00288228
0.144636
6.18413e-06
0.0030281
0.15206
-4.99398e-09
0.0031049
0.155937
-6.19431e-06
0.0031049
0.155937
-9.86381e-06
0.0030281
0.15206
-1.00004e-05
0.00288228
0.144636
-6.96587e-06
0.00268209
0.134287
0.00244704
0.121849
-1.32992e-08
2.51954e-05
0.00359021
0.146788
-8.93884e-10
3.72327e-05
0.00391697
0.161814
3.53598e-05
0.00419349
0.174212
2.1362e-05
0.0043923
0.183057
-6.90531e-09
0.00449645
0.18766
-2.1376e-05
0.00449645
0.18766
-3.53744e-05
0.0043923
0.183057
-3.72481e-05
0.0041935
0.174212
-2.52115e-05
0.00391697
0.161814
0.00359021
0.146788
-1.7073e-08
5.06608e-05
0.00450082
0.160478
-1.22981e-09
7.46439e-05
0.00488176
0.177074
7.03109e-05
0.00520065
0.190642
4.2117e-05
0.00542673
0.200261
-8.78968e-09
0.00554437
0.205249
-4.21348e-05
0.00554437
0.205249
-7.03291e-05
0.00542674
0.200261
-7.46626e-05
0.00520065
0.190642
-5.06799e-05
0.00488177
0.177074
0.00450083
0.160478
-2.00318e-08
8.18266e-05
0.00503731
0.164598
-1.67219e-09
0.000119723
0.00542716
0.181986
0.00011226
0.00574861
0.196064
6.69748e-05
0.00597312
0.205979
-1.0685e-08
0.00608901
0.2111
-6.69962e-05
0.00608901
0.2111
-0.000112282
0.00597312
0.205979
-0.000119745
0.00574861
0.196064
-8.18479e-05
0.00542717
0.181986
0.00503732
0.164598
-2.21764e-08
0.000116723
0.00514275
0.160803
-2.26415e-09
0.000169764
0.00549993
0.178428
0.000158697
0.00578889
0.192561
9.4442e-05
0.0059876
0.202448
-1.25211e-08
0.0060893
0.207534
-9.44669e-05
0.00608931
0.207534
-0.000158721
0.0059876
0.202448
-0.000169788
0.00578889
0.192561
-0.000116746
0.00549994
0.178428
0.00514275
0.160803
-2.34533e-08
0.00015368
0.00483512
0.150642
-2.89876e-09
0.000222857
0.00512872
0.168145
0.000207804
0.00536162
0.182051
0.000123392
0.00551949
0.191716
-1.41162e-08
0.00559963
0.196668
-0.00012342
0.00559963
0.196668
-0.000207831
0.00551949
0.191716
-0.000222883
0.00536162
0.182051
-0.000153704
0.00512872
0.168145
0.00483512
0.150641
-2.36751e-08
0.000193414
0.00418821
0.135497
-3.70027e-09
0.000279224
0.00440247
0.152683
0.000259077
0.00457002
0.166217
0.000153292
0.0046824
0.17556
-1.51415e-08
0.00473908
0.180327
-0.000153322
0.00473908
0.180327
-0.000259105
0.0046824
0.17556
-0.000279249
0.00457003
0.166217
-0.000193436
0.00440247
0.152683
0.00418821
0.135497
-2.276e-08
0.000237998
0.116557
-4.55465e-09
0.0033108
0.000339614
0.133376
0.00344549
0.000312885
0.146479
0.00355154
0.00018423
0.15546
0.0036239
-1.5183e-08
0.160023
0.00366038
-0.000184259
0.160023
0.00366038
-0.000312913
0.15546
0.0036239
-0.000339638
0.146479
0.00355154
-0.000238018
0.133376
0.00344549
0.116557
-2.04252e-08
0.0033108
9.99235e-08
0.000107868
0.0319672
-1.05987e-10
-3.39661e-07
0.000120019
0.035281
-2.90083e-07
0.00013076
0.0380723
-1.74855e-07
0.000139154
0.0400927
-9.37129e-10
0.000143663
0.0411537
1.72928e-07
0.000143664
0.0411537
2.8806e-07
0.000139154
0.0400927
3.37333e-07
0.00013076
0.0380723
-1.0215e-07
0.000120019
0.035281
0.000107868
0.0319672
-2.43205e-09
2.15696e-06
0.000425993
0.0837543
-2.41083e-10
2.29002e-06
0.000471895
0.092324
2.02727e-06
0.000511905
0.0995023
1.18433e-06
0.000542074
0.104676
-2.41874e-09
0.000558181
0.107386
-1.18921e-06
0.000558181
0.107386
-2.03242e-06
0.000542075
0.104676
-2.29544e-06
0.000511906
0.0995023
-2.1627e-06
0.000471895
0.092324
0.000425993
0.0837543
-6.06847e-09
6.88555e-06
0.000869915
0.121398
-4.44104e-10
9.24511e-06
0.000959579
0.133797
8.41791e-06
0.00103709
0.144112
4.97403e-06
0.00109441
0.151511
-3.92535e-09
0.00112485
0.155376
-4.98195e-06
0.00112485
0.155376
-8.42617e-06
0.00109441
0.151511
-9.25379e-06
0.00103709
0.144112
-6.89454e-06
0.00095958
0.133797
0.000869916
0.121398
-9.43634e-09
1.466e-05
0.00133534
0.146307
-6.50094e-10
2.08626e-05
0.00146561
0.161301
1.92935e-05
0.00157723
0.173674
1.14482e-05
0.00165856
0.1825
-5.3336e-09
0.0017015
0.187095
-1.1459e-05
0.0017015
0.187095
-1.93046e-05
0.00165857
0.1825
-2.08741e-05
0.00157723
0.173674
-1.46717e-05
0.00146561
0.161301
0.00133534
0.146307
-1.21775e-08
2.5488e-05
0.00173027
0.160057
-8.82553e-10
3.69035e-05
0.00188793
0.17664
3.43474e-05
0.00202155
0.1902
2.04137e-05
0.00211755
0.199816
-6.66172e-09
0.00216788
0.204803
-2.04271e-05
0.00216788
0.204803
-3.4361e-05
0.00211755
0.199816
-3.69174e-05
0.00202155
0.1902
-2.55019e-05
0.00188793
0.17664
0.00173027
0.160057
-1.43648e-08
3.90156e-05
0.00198847
0.164301
-1.15133e-09
5.6695e-05
0.00215527
0.181701
5.28788e-05
0.00229465
0.195795
3.14366e-05
0.00239336
0.205725
-7.95241e-09
0.00244471
0.210855
-3.14525e-05
0.00244471
0.210855
-5.28948e-05
0.00239337
0.205725
-5.67109e-05
0.00229465
0.195795
-3.90312e-05
0.00215527
0.181701
0.00198847
0.164301
-1.59837e-08
5.45668e-05
0.00207565
0.160661
-1.50114e-09
7.92543e-05
0.00223318
0.178325
7.39412e-05
0.00236256
0.192498
4.3941e-05
0.00245283
0.202419
-9.16877e-09
0.00249939
0.207524
-4.39593e-05
0.0024994
0.207524
-7.39593e-05
0.00245283
0.202419
-7.92719e-05
0.00236256
0.192498
-5.45837e-05
0.00223318
0.178325
0.00207565
0.160661
-1.70139e-08
7.14445e-05
0.00198917
0.150657
-1.94988e-09
0.000103679
0.00212255
0.168223
9.66304e-05
0.00223006
0.182191
5.73557e-05
0.00230397
0.191904
-1.02283e-08
0.00234177
0.196883
-5.73759e-05
0.00234177
0.196883
-9.66501e-05
0.00230397
0.191904
-0.000103698
0.00223006
0.182191
-7.14617e-05
0.00212255
0.168223
0.00198917
0.150657
-1.74022e-08
8.96194e-05
0.00175276
0.135644
-2.46538e-09
0.000129497
0.00185336
0.152912
0.000120206
0.00193289
0.166524
7.11517e-05
0.0019868
0.175926
-1.10003e-08
0.00201414
0.180726
-7.11734e-05
0.00201414
0.180726
-0.000120227
0.0019868
0.175926
-0.000129516
0.00193289
0.166524
-8.96364e-05
0.00185336
0.152912
0.00175277
0.135644
-1.71132e-08
0.000108281
0.116791
-2.76047e-09
0.00140992
0.000155231
0.133707
0.0014749
0.000143493
0.146898
0.00152607
8.46762e-05
0.155945
0.00156113
-1.12974e-08
0.160543
0.00157889
-8.46984e-05
0.160543
0.00157889
-0.000143514
0.155945
0.00156114
-0.00015525
0.146898
0.00152607
-0.000108297
0.133707
0.0014749
0.116791
-1.59455e-08
0.00140992
-9.25696e-07
5.1998e-05
0.0319161
-7.06246e-11
-1.36911e-06
5.69827e-05
0.0352244
-1.1495e-06
6.11537e-05
0.0380109
-6.49665e-07
6.43202e-05
0.0400279
-7.29084e-10
6.59794e-05
0.041087
6.48179e-07
6.59794e-05
0.041087
1.14798e-06
6.43202e-05
0.0400279
1.36754e-06
6.11538e-05
0.0380109
9.24079e-07
5.69828e-05
0.0352244
5.19981e-05
0.0319161
-1.6682e-09
-1.18135e-06
0.000181746
0.0836258
-1.65862e-10
-1.81694e-06
0.000200011
0.0921816
-1.55947e-06
0.000215595
0.0993476
-8.72222e-07
0.000227238
0.104513
-1.88114e-09
0.000233402
0.107218
8.68411e-07
0.000233402
0.107218
1.5556e-06
0.000227238
0.104513
1.81292e-06
0.000215595
0.0993476
1.17728e-06
0.000200011
0.0921816
0.000181746
0.0836258
-4.10235e-09
9.58038e-08
0.000358838
0.121221
-2.89975e-10
2.98011e-08
0.000395057
0.133602
1.03577e-07
0.000426048
0.143901
1.21474e-07
0.000448871
0.15129
-3.01457e-09
0.000460973
0.155148
-1.27552e-07
0.000460973
0.155148
-1.09891e-07
0.000448871
0.15129
-3.61691e-08
0.000426048
0.143901
-1.02167e-07
0.000395057
0.133602
0.000358839
0.121221
-6.45051e-09
2.74298e-06
0.000547844
0.146116
-4.16458e-10
4.01601e-06
0.000601678
0.161094
3.86838e-06
0.000647591
0.173452
2.36423e-06
0.000681046
0.18227
-4.0466e-09
0.000698711
0.18686
-2.37236e-06
0.000698711
0.18686
-3.87661e-06
0.000681046
0.18227
-4.02437e-06
0.000647591
0.173452
-2.75125e-06
0.000601678
0.161094
0.000547844
0.146116
-8.38759e-09
6.8785e-06
0.000713404
0.159885
-5.66525e-10
1.01433e-05
0.000780274
0.176458
9.61589e-06
0.000836843
0.190012
5.78875e-06
0.000877581
0.199624
-4.98453e-09
0.000898969
0.204609
-5.79874e-06
0.00089897
0.204609
-9.62592e-06
0.000877581
0.199624
-1.01534e-05
0.000836844
0.190012
-6.8883e-06
0.000780275
0.176458
0.000713405
0.159885
-9.95231e-09
1.23125e-05
0.000827475
0.164175
-7.59342e-10
1.81159e-05
0.00090016
0.181575
1.70908e-05
0.000960899
0.195672
1.0239e-05
0.00100408
0.205605
-5.87072e-09
0.0010266
0.210738
-1.02507e-05
0.0010266
0.210738
-1.71025e-05
0.00100408
0.205605
-1.81273e-05
0.0009609
0.195672
-1.23235e-05
0.000900161
0.181575
0.000827476
0.164175
-1.11424e-08
1.87902e-05
0.000873163
0.160597
-9.87801e-10
2.75629e-05
0.000943724
0.178273
2.59349e-05
0.00100177
0.192459
1.54968e-05
0.00104247
0.202391
-6.70069e-09
0.00106353
0.207502
-1.55101e-05
0.00106353
0.207502
-2.59479e-05
0.00104247
0.202391
-2.75755e-05
0.00100177
0.192459
-1.88021e-05
0.000943725
0.178273
0.000873164
0.160597
-1.19744e-08
2.60702e-05
0.000845965
0.150658
-1.24576e-09
3.81612e-05
0.000907421
0.168247
3.58087e-05
0.00095713
0.182238
2.13427e-05
0.0009915
0.19197
-7.4483e-09
0.00100913
0.196958
-2.13574e-05
0.00100913
0.196958
-3.5823e-05
0.0009915
0.19197
-3.81748e-05
0.000957131
0.182238
-2.60827e-05
0.000907422
0.168247
0.000845966
0.150658
-1.24508e-08
3.426e-05
0.000752693
0.135703
-1.41878e-09
4.98266e-05
0.0008005
0.153003
4.64776e-05
0.000838501
0.166646
2.75911e-05
0.000864409
0.176072
-8.0639e-09
0.00087759
0.180885
-2.7607e-05
0.000877591
0.180885
-4.64929e-05
0.00086441
0.176072
-4.98408e-05
0.000838502
0.166646
-3.42729e-05
0.000800501
0.153003
0.000752693
0.135703
-1.25439e-08
4.31623e-05
0.116891
-1.61658e-09
0.000609558
6.21259e-05
0.133847
0.000641617
5.76282e-05
0.147074
0.000667012
3.40774e-05
0.156148
0.000684477
-8.46385e-09
0.160761
0.000693344
-3.40941e-05
0.160761
0.000693344
-5.7644e-05
0.156148
0.000684477
-6.21405e-05
0.147074
0.000667013
-4.31751e-05
0.133847
0.000641617
0.116891
-1.21525e-08
0.000609557
-8.72908e-08
1.35343e-05
0.0319026
-5.26383e-11
-1.97034e-07
1.5079e-05
0.0352094
-1.66857e-07
1.64565e-05
0.0379944
-9.75027e-08
1.75679e-05
0.0400103
-5.68025e-10
1.81652e-05
0.0410688
9.6372e-08
1.81652e-05
0.0410688
1.65716e-07
1.75679e-05
0.0400103
1.95907e-07
1.64565e-05
0.0379944
8.61707e-08
1.50791e-05
0.0352095
1.35343e-05
0.0319026
-1.10275e-09
4.62585e-08
5.80557e-05
0.0835812
-1.18808e-10
-6.74575e-08
6.45354e-05
0.0921322
-7.67256e-08
7.024e-05
0.0992938
-4.50092e-08
7.4596e-05
0.104456
-1.44457e-09
7.69366e-05
0.107159
4.2115e-08
7.69366e-05
0.107159
7.38856e-08
7.4596e-05
0.104456
6.46593e-08
7.024e-05
0.0992938
-4.88766e-08
6.45355e-05
0.0921322
5.8056e-05
0.0835812
-2.68372e-09
6.34922e-07
0.000124271
0.121154
-2.06821e-10
7.74458e-07
0.000137784
0.133529
6.9642e-07
0.000149567
0.143822
4.11498e-07
0.000158388
0.151206
-2.29006e-09
0.000163104
0.155062
-4.16066e-07
0.000163104
0.155062
-7.00987e-07
0.000158388
0.151206
-7.7895e-07
0.000149567
0.143822
-6.39254e-07
0.000137785
0.133529
0.000124271
0.121154
-4.29148e-09
1.77501e-06
0.000198091
0.14604
-2.92211e-10
2.46995e-06
0.000218832
0.161012
2.27835e-06
0.000236767
0.173365
1.35277e-06
0.000250006
0.182179
-3.04357e-09
0.000257044
0.186767
-1.35884e-06
0.000257044
0.186767
-2.28439e-06
0.000250006
0.182179
-2.4759e-06
0.000236767
0.173365
-1.78072e-06
0.000218832
0.161012
0.000198092
0.14604
-5.62997e-09
3.49852e-06
0.000265335
0.159814
-3.90708e-10
5.03218e-06
0.000291727
0.176384
4.68607e-06
0.000314323
0.189935
2.78864e-06
0.000330786
0.199545
-3.72228e-09
0.000339482
0.204529
-2.79606e-06
0.000339483
0.204529
-4.69343e-06
0.000330786
0.199545
-5.03938e-06
0.000314324
0.189935
-3.5054e-06
0.000291728
0.176384
0.000265335
0.159814
-6.71932e-09
5.78035e-06
0.00031421
0.16412
-4.94283e-10
8.40173e-06
0.000343476
0.181521
7.85498e-06
0.000368214
0.195618
4.67867e-06
0.000385998
0.205553
-4.34957e-09
0.000395326
0.210686
-4.68733e-06
0.000395326
0.210686
-7.86353e-06
0.000385998
0.205553
-8.41004e-06
0.000368214
0.195618
-5.78822e-06
0.000343476
0.181521
0.000314211
0.16412
-7.58645e-09
8.53515e-06
0.000337032
0.160565
-5.94299e-10
1.24463e-05
0.000365939
0.178246
1.1653e-05
0.000389994
0.192438
6.94075e-06
0.000407043
0.202374
-4.92039e-09
0.000415913
0.207489
-6.95053e-06
0.000415913
0.207489
-1.16626e-05
0.000407043
0.202374
-1.24556e-05
0.000389994
0.192438
-8.54379e-06
0.00036594
0.178246
0.000337032
0.160565
-8.26413e-09
1.16606e-05
0.00033101
0.150652
-7.1613e-10
1.70147e-05
0.000356608
0.168251
1.59183e-05
0.000377532
0.182251
9.47011e-06
0.000392135
0.191991
-5.40994e-09
0.000399663
0.196984
-9.48084e-06
0.000399663
0.196984
-1.59287e-05
0.000392135
0.191991
-1.70246e-05
0.000377532
0.182251
-1.16697e-05