/*--------------------------------*- C++ -*----------------------------------*\
| =========                 |                                                 |
| \\      /  F ield         | OpenFOAM: The Open Source CFD Toolbox           |
|  \\    /   O peration     | Version:  2106                                  |
|   \\  /    A nd           | Website:  www.openfoam.com                      |
|    \\/     M anipulation  |                                                 |
\*---------------------------------------------------------------------------*/
FoamFile
{
    version     2.0;
    format      ascii;
    arch        "LSB;label=32;scalar=64";
    class       surfaceScalarField;
    location    "0.12";
    object      phi;
}
// * * * * * * * * * * * * * * * * * * * * * * * * * * * * * * * * * * * * * //

dimensions      [0 3 -1 0 0 0 0];

oriented        oriented;

internalField   nonuniform List<scalar> 
29100
(
0.000943927
0.113916
0.0673291
-1.87565e-10
0.00116813
0.117361
0.0739873
0.00100341
0.119729
0.0795531
0.000571725
0.12129
0.0835357
-9.51337e-10
0.12207
0.0856096
-0.000571726
0.12207
0.0856096
-0.00100341
0.12129
0.0835357
-0.00116813
0.119729
0.0795531
-0.000943929
0.117361
0.0739873
0.113916
0.0673291
-3.70601e-09
0.00183318
0.152904
0.128178
-6.52664e-10
0.00254671
0.155651
0.139232
0.00227027
0.157358
0.148276
0.00131243
0.158367
0.154666
-2.76346e-09
0.158848
0.157966
-0.00131243
0.158848
0.157966
-0.00227027
0.158367
0.154666
-0.00254671
0.157358
0.148276
-0.00183319
0.155651
0.139232
0.152904
0.128178
-7.40846e-09
0.00226332
0.155659
0.150791
-6.01655e-10
0.00320023
0.156773
0.162838
0.00286862
0.157298
0.172531
0.00165926
0.157437
0.179313
-3.28496e-09
0.157467
0.182794
-0.00165926
0.157467
0.182794
-0.00286862
0.157437
0.179313
-0.00320024
0.157298
0.172532
-0.00226333
0.156773
0.162838
0.155659
0.150791
-1.13064e-08
0.00249317
0.140962
0.154824
-6.35812e-10
0.00347421
0.140637
0.166716
0.00310446
0.140169
0.176149
0.00179124
0.139621
0.182694
-3.88569e-09
0.1393
0.186036
-0.00179125
0.1393
0.186036
-0.00310447
0.139621
0.182694
-0.00347422
0.140169
0.176149
-0.00249318
0.140637
0.166716
0.140962
0.154824
-1.42992e-08
0.00255754
0.119194
0.148641
-8.85246e-10
0.00351005
0.117911
0.159996
0.00312448
0.116821
0.168896
0.00179917
0.115874
0.175026
-5.01707e-09
0.115356
0.178144
-0.00179918
0.115356
0.178144
-0.00312449
0.115874
0.175026
-0.00351006
0.116821
0.168896
-0.00255756
0.117911
0.159996
0.119194
0.148641
-1.72293e-08
0.00251204
0.0960063
0.136916
-1.22382e-09
0.00340542
0.0942365
0.147668
0.00302133
0.092863
0.156014
0.00173758
0.0917733
0.161729
-7.00779e-09
0.0911909
0.164626
-0.0017376
0.0911909
0.164626
-0.00302134
0.0917733
0.161729
-0.00340544
0.092863
0.156014
-0.00251206
0.0942365
0.147668
0.0960063
0.136916
-1.99498e-08
0.00241519
0.0742685
0.122373
-1.77571e-09
0.00324192
0.0723698
0.132588
0.00286823
0.0709603
0.14046
0.00164843
0.0699054
0.145821
-9.97489e-09
0.0693532
0.148533
-0.00164845
0.0693532
0.148533
-0.00286825
0.0699054
0.145821
-0.00324194
0.0709603
0.14046
-0.00241521
0.0723698
0.132588
0.0742685
0.122373
-2.24026e-08
0.0022952
0.0552592
0.106575
-2.19575e-09
0.00306906
0.0534502
0.116357
0.00271309
0.0521592
0.123852
0.0015596
0.0512485
0.128934
-1.40437e-08
0.0507841
0.131499
-0.00155962
0.0507841
0.131499
-0.00271312
0.0512485
0.128934
-0.00306909
0.0521592
0.123852
-0.00229523
0.0534502
0.116357
0.0552592
0.106575
-2.53323e-08
0.00218088
0.0393703
0.0903793
-2.16763e-09
0.00293235
0.0377517
0.099821
0.00259407
0.0366803
0.107023
0.00149108
0.0359772
0.111888
-1.88491e-08
0.0356303
0.114339
-0.00149112
0.0356303
0.114339
-0.0025941
0.0359772
0.111888
-0.00293239
0.0366803
0.107023
-0.00218091
0.0377516
0.099821
0.0393703
0.0903793
-2.8e-08
0.00225769
0.0742374
-2.58339e-09
0.0263569
0.00295848
0.0833997
0.0251877
0.00257871
0.0903633
0.0244133
0.00146862
0.0950518
0.0239388
-2.46171e-08
0.0974093
0.0237067
-0.00146866
0.0974093
0.0237067
-0.00257876
0.0950518
0.0239388
-0.00295852
0.0903633
0.0244133
-0.00225772
0.0833997
0.0251877
0.0742374
-2.98399e-08
0.0263569
-0.000196745
0.0255958
0.0419301
-3.68223e-10
-0.000197297
0.0277574
0.0462305
-0.000139309
0.0295827
0.0499124
-6.93492e-05
0.0308786
0.0525871
-6.36515e-10
0.0315468
0.0539934
6.93474e-05
0.0315468
0.0539934
0.000139307
0.0308786
0.0525871
0.000197294
0.0295827
0.0499124
0.000196741
0.0277574
0.0462305
0.0255958
0.0419301
-4.5179e-09
-3.90693e-05
0.0532028
0.10061
-3.80314e-10
7.47854e-05
0.0567471
0.110129
0.000127768
0.0596837
0.118122
9.57279e-05
0.0617166
0.12386
-1.73952e-09
0.0627541
0.126854
-9.57323e-05
0.0627541
0.126854
-0.000127774
0.0617166
0.12386
-7.47921e-05
0.0596837
0.118122
3.90611e-05
0.0567471
0.110129
0.0532028
0.10061
-1.02391e-08
0.000263583
0.0698658
0.133865
-6.1485e-10
0.000502252
0.0735001
0.145847
0.000516317
0.0764639
0.155737
0.000323344
0.0784606
0.162762
-3.4464e-09
0.0794669
0.166405
-0.000323352
0.0794669
0.166405
-0.000516326
0.0784606
0.162762
-0.000502263
0.0764639
0.155737
-0.000263596
0.0735002
0.145847
0.0698658
0.133865
-1.57581e-08
0.000585423
0.0759171
0.148187
-7.41185e-10
0.000928937
0.0789122
0.16096
0.000892428
0.0813155
0.171334
0.000538874
0.0828795
0.178628
-5.61681e-09
0.0836541
0.182388
-0.000538884
0.0836541
0.182388
-0.000892441
0.0828795
0.178628
-0.000928952
0.0813155
0.171334
-0.00058544
0.0789122
0.16096
0.0759171
0.148187
-1.97297e-08
0.000874001
0.0739159
0.149768
-8.55968e-10
0.00129289
0.0760258
0.162464
0.00120508
0.0776823
0.172617
0.000715122
0.0787078
0.179687
-7.97597e-09
0.079202
0.183311
-0.000715136
0.079202
0.183311
-0.00120509
0.0787078
0.179687
-0.00129291
0.0776823
0.172617
-0.000874021
0.0760258
0.162464
0.0739159
0.149768
-2.32031e-08
0.00110746
0.0666637
0.143061
-1.09009e-09
0.00157656
0.067932
0.155292
0.00144368
0.068888
0.164941
0.00084804
0.06943
0.171602
-1.08234e-08
0.0696777
0.174999
-0.00084806
0.0696777
0.174999
-0.0014437
0.06943
0.171602
-0.00157658
0.068888
0.164941
-0.00110748
0.067932
0.155292
0.0666637
0.143061
-2.62027e-08
0.00128053
0.0565556
0.131201
-1.46136e-09
0.00178393
0.0571534
0.142864
0.00161711
0.0575574
0.151957
0.000944464
0.0577381
0.158186
-1.42923e-08
0.0578071
0.161348
-0.000944491
0.0578071
0.161348
-0.00161714
0.0577381
0.158186
-0.00178396
0.0575574
0.151957
-0.00128056
0.0571534
0.142864
0.0565556
0.131201
-2.84824e-08
0.00139825
0.0453893
0.116343
-2.30076e-09
0.00193422
0.0455017
0.127473
0.00174712
0.0455281
0.136068
0.00101797
0.0454845
0.141917
-1.85981e-08
0.0454493
0.144875
-0.00101801
0.0454493
0.144875
-0.00174715
0.0454845
0.141917
-0.00193425
0.0455281
0.136068
-0.00139828
0.0455017
0.127473
0.0453893
0.116343
-3.03022e-08
0.00149272
0.0343754
0.0999005
-3.86266e-09
0.00207504
0.0341549
0.110586
0.00187303
0.0339791
0.118774
0.00108944
0.0338416
0.124314
-2.37033e-08
0.0337697
0.127108
-0.00108949
0.0337697
0.127108
-0.00187307
0.0338416
0.124314
-0.00207508
0.0339791
0.118774
-0.00149276
0.0341549
0.110586
0.0343754
0.0999004
-3.01386e-08
0.00170269
0.0827497
-5.58832e-09
0.0241605
0.00232651
0.0930835
0.0238473
0.00207177
0.100953
0.0236445
0.00119378
0.106251
0.0235201
-2.69905e-08
0.108915
0.0234574
-0.00119383
0.108915
0.0234574
-0.00207182
0.106251
0.0235201
-0.00232655
0.100953
0.0236445
-0.00170273
0.0930834
0.0238473
0.0827497
-2.82681e-08
0.0241605
4.73223e-05
0.00546782
0.0364149
-7.81095e-11
4.8867e-05
0.00603876
0.0401902
4.02103e-05
0.00652591
0.0433951
2.22768e-05
0.00688787
0.0457172
-6.13633e-10
0.00707903
0.0469367
-2.22782e-05
0.00707903
0.0469367
-4.02119e-05
0.00688787
0.0457172
-4.88699e-05
0.00652591
0.0433951
-4.73255e-05
0.00603876
0.0401902
0.00546782
0.0364149
-4.15881e-09
0.000206925
0.0161871
0.0896838
-2.37312e-10
0.000275453
0.0175686
0.0985303
0.000242599
0.0187241
0.105957
0.000140342
0.019552
0.111298
-1.86093e-09
0.0199838
0.11409
-0.000140345
0.0199838
0.11409
-0.000242603
0.019552
0.111298
-0.00027546
0.0187241
0.105957
-0.000206933
0.0175686
0.0985303
0.0161871
0.0896838
-8.98533e-09
0.00038093
0.0263748
0.123296
-3.29311e-10
0.000531987
0.0282256
0.135039
0.000477264
0.0297454
0.144771
0.000278076
0.0308018
0.151712
-3.06515e-09
0.0313456
0.155321
-0.000278082
0.0313456
0.155321
-0.000477271
0.0308018
0.151712
-0.000531998
0.0297454
0.144771
-0.000380942
0.0282256
0.135039
0.0263748
0.123296
-1.38217e-08
0.000554849
0.0330511
0.140956
-6.09609e-10
0.000786872
0.0349408
0.154013
0.000712985
0.0364677
0.164686
0.000416607
0.0374982
0.172228
-4.33038e-09
0.0380211
0.176129
-0.000416617
0.0380211
0.176129
-0.000712996
0.0374982
0.172228
-0.000786886
0.0364677
0.164686
-0.000554865
0.0349408
0.154013
0.0330511
0.140956
-1.75441e-08
0.000718397
0.0356953
0.146406
-1.13595e-09
0.0010186
0.0373233
0.159781
0.000925779
0.0386174
0.17056
0.000541183
0.039463
0.178107
-6.04381e-09
0.0398848
0.181989
-0.000541197
0.0398848
0.181989
-0.000925794
0.039463
0.178107
-0.00101862
0.0386174
0.17056
-0.000718416
0.0373233
0.159781
0.0356953
0.146406
-2.06448e-08
0.000865761
0.0348658
0.143024
-1.64684e-09
0.00121903
0.0360917
0.156171
0.00110725
0.0370458
0.166625
0.000646834
0.0376451
0.17388
-8.4382e-09
0.0379375
0.177593
-0.000646852
0.0379375
0.177593
-0.00110727
0.0376451
0.17388
-0.00121905
0.0370458
0.166625
-0.000865782
0.0360917
0.156171
0.0348658
0.143024
-2.28385e-08
0.000990295
0.0315109
0.133566
-2.13669e-09
0.00138452
0.0323143
0.146247
0.00125597
0.0329195
0.156212
0.000733262
0.0332805
0.163073
-1.14095e-08
0.0334516
0.166568
-0.000733285
0.0334516
0.166568
-0.00125599
0.0332805
0.163073
-0.00138454
0.0329195
0.156212
-0.000990318
0.0323143
0.146247
0.0315109
0.133566
-2.40904e-08
0.00108837
0.0266168
0.120149
-3.32587e-09
0.0015182
0.0270432
0.132314
0.00137726
0.0273506
0.141778
0.000804043
0.0275219
0.148249
-1.46726e-08
0.0276002
0.151531
-0.000804072
0.0276002
0.151531
-0.00137728
0.0275219
0.148249
-0.00151823
0.0273506
0.141778
-0.00108839
0.0270432
0.132314
0.0266168
0.120149
-2.45557e-08
0.00117018
0.0210375
0.10431
-4.90059e-09
0.0016369
0.021161
0.116001
0.00148474
0.021256
0.12502
0.000866198
0.0213043
0.13115
-1.77841e-08
0.0213257
0.134248
-0.000866233
0.0213257
0.134248
-0.00148477
0.0213044
0.13115
-0.00163692
0.021256
0.12502
-0.0011702
0.021161
0.116001
0.0210375
0.10431
-2.32107e-08
0.00129452
0.0871022
-5.89492e-09
0.0153905
0.00178332
0.098397
0.0153587
0.00160295
0.107046
0.0153429
0.000929616
0.112892
0.0153368
-2.00268e-08
0.115838
0.015333
-0.000929654
0.115838
0.015333
-0.00160298
0.112892
0.0153368
-0.00178335
0.107046
0.0153429
-0.00129454
0.098397
0.0153587
0.0871022
-1.96543e-08
0.0153905
-2.62233e-05
0.0022257
0.0342154
-1.47459e-10
-3.6513e-05
0.00244274
0.0377577
-3.04469e-05
0.00262558
0.0407635
-1.69169e-05
0.00275915
0.0429445
-3.55835e-10
0.00282873
0.044091
1.69156e-05
0.00282873
0.044091
3.0445e-05
0.00275915
0.0429445
3.65111e-05
0.00262558
0.0407635
2.62206e-05
0.00244274
0.0377577
0.0022257
0.0342154
-3.46611e-09
-1.80804e-05
0.00633063
0.085597
-7.06768e-11
-2.26236e-05
0.00689753
0.09408
-1.65236e-05
0.00737477
0.101201
-7.7633e-06
0.00771734
0.106331
-8.51896e-10
0.00789564
0.109015
7.76002e-06
0.00789564
0.109015
1.65192e-05
0.00771734
0.106331
2.26188e-05
0.00737477
0.101201
1.80742e-05
0.00689753
0.09408
0.00633063
0.085597
-7.50396e-09
2.45397e-05
0.0105911
0.119011
-1.81659e-10
4.21775e-05
0.0114472
0.130471
4.40254e-05
0.0121628
0.139981
2.84401e-05
0.0126674
0.146777
-2.24095e-09
0.0129285
0.150317
-2.84455e-05
0.0129285
0.150317
-4.40321e-05
0.0126674
0.146777
-4.21852e-05
0.0121628
0.139981
-2.45494e-05
0.0114472
0.130471
0.0105911
0.119011
-1.14707e-08
8.83916e-05
0.0139288
0.13753
-2.90307e-10
0.000136509
0.0149219
0.15049
0.000131812
0.0157433
0.16111
8.03501e-05
0.0163117
0.168635
-3.65513e-09
0.0166033
0.172534
-8.03577e-05
0.0166033
0.172534
-0.000131822
0.0163117
0.168635
-0.00013652
0.0157433
0.16111
-8.84039e-05
0.0149219
0.15049
0.0139288
0.13753
-1.42608e-08
0.000164493
0.0158343
0.144336
-4.48842e-10
0.000244934
0.0168115
0.157811
0.000231398
0.0176081
0.168709
0.000138779
0.0181481
0.176363
-5.12478e-09
0.0184222
0.180309
-0.000138789
0.0184223
0.180309
-0.00023141
0.0181481
0.176363
-0.000244947
0.0176081
0.168709
-0.000164508
0.0168115
0.157811
0.0158343
0.144336
-1.6589e-08
0.000245101
0.0162388
0.142375
-8.84092e-10
0.000356346
0.01709
0.155781
0.000332524
0.0177704
0.166486
0.000197769
0.0182211
0.173942
-6.83623e-09
0.0184471
0.177766
-0.000197783
0.0184472
0.177766
-0.000332539
0.0182211
0.173942
-0.000356361
0.0177704
0.166486
-0.000245117
0.01709
0.155781
0.0162388
0.142375
-1.81394e-08
0.000323536
0.0153423
0.134139
-1.53484e-09
0.000463388
0.0160084
0.147189
0.00042926
0.0165267
0.15749
0.000254098
0.0168619
0.164608
-8.71993e-09
0.017028
0.168241
-0.000254115
0.017028
0.168241
-0.000429278
0.0168619
0.164608
-0.000463405
0.0165267
0.15749
-0.000323554
0.0160084
0.147189
0.0153423
0.134139
-1.87792e-08
0.000396093
0.0134754
0.12162
-1.99829e-09
0.000564385
0.0139373
0.134217
0.000521039
0.0142873
0.144061
0.000307597
0.0145096
0.150814
-1.04288e-08
0.0146188
0.154247
-0.000307618
0.0146188
0.154247
-0.000521059
0.0145096
0.150814
-0.000564403
0.0142873
0.144061
-0.00039611
0.0139373
0.134217
0.0134754
0.12162
-1.87399e-08
0.000469009
0.0110002
0.106316
-2.70462e-09
0.000668355
0.0112691
0.11847
0.000614684
0.0114757
0.127886
0.000361642
0.0116077
0.134305
-1.16317e-08
0.0116728
0.137556
-0.000361665
0.0116728
0.137556
-0.000614705
0.0116077
0.134305
-0.000668374
0.0114757
0.127886
-0.000469026
0.0112691
0.11847
0.0110002
0.106316
-1.69279e-08
0.000574206
0.0892925
-4.31489e-09
0.00823576
0.000801501
0.101069
0.0083698
0.000727304
0.110118
0.00847821
0.000424153
0.11625
0.00855307
-1.13021e-08
0.119345
0.00859021
-0.000424175
0.119345
0.00859021
-0.000727324
0.11625
0.00855308
-0.000801517
0.110118
0.00847822
-0.000574219
0.101069
0.00836981
0.0892925
-1.30642e-08
0.00823576
6.29035e-06
0.000523692
0.0336855
-1.05946e-10
5.61042e-06
0.000586983
0.0371714
4.44697e-06
0.000642981
0.0401216
2.3698e-06
0.000686258
0.0422603
-6.8075e-10
0.000709484
0.0433839
-2.37088e-06
0.000709485
0.0433839
-4.44816e-06
0.000686259
0.0422603
-5.612e-06
0.000642981
0.0401216
-6.29236e-06
0.000586983
0.0371714
0.000523692
0.0336855
-2.6205e-09
2.3343e-05
0.00190215
0.0841952
-2.26358e-11
2.89225e-05
0.00210035
0.0925611
2.4953e-05
0.00227219
0.0995761
1.42824e-05
0.00239961
0.104628
-1.42666e-09
0.0024672
0.107271
-1.42848e-05
0.0024672
0.107271
-2.49557e-05
0.00239961
0.104628
-2.89263e-05
0.00227219
0.0995761
-2.33479e-05
0.00210035
0.0925611
0.00190215
0.0841952
-5.59989e-09
4.68178e-05
0.00359749
0.117269
-1.24511e-10
6.39301e-05
0.00393036
0.128624
5.72299e-05
0.00421491
0.138045
3.33726e-05
0.00442068
0.14478
-2.17688e-09
0.00452883
0.148288
-3.33768e-05
0.00452883
0.148288
-5.72347e-05
0.00442068
0.14478
-6.39362e-05
0.00421491
0.138045
-4.68255e-05
0.00393036
0.128624
0.00359749
0.117269
-8.59031e-09
7.7038e-05
0.00512196
0.135928
-3.10042e-10
0.000109286
0.00554235
0.148846
9.97432e-05
0.00589724
0.159437
5.86269e-05
0.00614877
0.166948
-2.96679e-09
0.00627972
0.170842
-5.86329e-05
0.00627972
0.170842
-9.97498e-05
0.00614877
0.166948
-0.000109294
0.00589725
0.159437
-7.70476e-05
0.00554235
0.148846
0.00512196
0.135928
-1.07195e-08
0.00011266
0.00617747
0.143168
-5.61267e-10
0.000161673
0.00662246
0.156682
0.000148731
0.00699316
0.167626
8.76817e-05
0.00725093
0.175322
-3.75927e-09
0.00738381
0.179292
-8.76894e-05
0.00738381
0.179292
-0.00014874
0.00725094
0.175322
-0.000161682
0.00699317
0.167626
-0.000112671
0.00662247
0.156682
0.00617748
0.143168
-1.2466e-08
0.000151691
0.00663968
0.141761
-7.81809e-10
0.000217677
0.00705303
0.155284
0.000200705
0.00739195
0.166104
0.000118405
0.00762313
0.173652
-4.67888e-09
0.00774104
0.177527
-0.000118414
0.00774104
0.177527
-0.000200715
0.00762313
0.173652
-0.000217689
0.00739196
0.166105
-0.000151704
0.00705304
0.155284
0.00663969
0.141761
-1.36373e-08
0.000191662
0.00651865
0.134068
-9.76397e-10
0.00027417
0.00686145
0.147298
0.00025285
0.00713712
0.157766
0.000149155
0.00732164
0.165013
-5.69171e-09
0.0074148
0.168716
-0.000149166
0.0074148
0.168716
-0.000252862
0.00732165
0.165013
-0.000274182
0.00713712
0.157766
-0.000191675
0.00686146
0.147298
0.00651866
0.134068
-1.40419e-08
0.000230554
0.00591236
0.121995
-1.50929e-09
0.000329389
0.00616472
0.134815
0.000303729
0.00636399
0.144859
0.000179086
0.00649546
0.151765
-6.67353e-09
0.00656131
0.15528
-0.000179099
0.00656131
0.15528
-0.000303742
0.00649546
0.151765
-0.000329402
0.006364
0.144859
-0.000230566
0.00616473
0.134815
0.00591237
0.121995
-1.36975e-08
0.000269245
0.00496448
0.106994
-2.43714e-09
0.000384388
0.00512422
0.119395
0.000353649
0.00525052
0.12903
0.000208127
0.00533366
0.135612
-7.50101e-09
0.00537523
0.13895
-0.000208142
0.00537523
0.13895
-0.000353663
0.00533366
0.135612
-0.0003844
0.00525053
0.12903
-0.000269256
0.00512423
0.119395
0.00496449
0.106994
-1.19785e-08
0.000314967
0.090115
-2.98598e-09
0.00382698
0.00044265
0.102151
0.00391428
0.000403922
0.111424
0.00398265
0.000236477
0.117721
0.00402984
-7.81924e-09
0.120903
0.00405351
-0.000236493
0.120903
0.00405351
-0.000403936
0.117721
0.00402984
-0.000442661
0.111424
0.00398265
-0.000314975
0.102151
0.00391429
0.090115
-9.39304e-09
0.00382698
-3.69498e-06
0.000281238
0.0334079
-7.40344e-11
-5.56879e-06
0.000308089
0.0368652
-4.78366e-06
0.000330087
0.0397908
-2.71338e-06
0.000346256
0.041912
-4.52393e-10
0.000354675
0.0430265
2.71237e-06
0.000354675
0.0430265
4.78253e-06
0.000346256
0.041912
5.56747e-06
0.000330087
0.0397908
3.69346e-06
0.000308088
0.0368652
0.000281238
0.0334079
-1.88954e-09
-3.59246e-06
0.000873794
0.0836062
-1.14892e-10
-5.47442e-06
0.000956082
0.091915
-4.68958e-06
0.00102494
0.0988805
-2.56982e-06
0.00107496
0.103897
-9.26411e-10
0.00110117
0.106522
2.56767e-06
0.00110117
0.106522
4.687e-06
0.00107496
0.103897
5.47128e-06
0.00102494
0.0988805
3.58883e-06
0.000956082
0.091915
0.000873795
0.0836062
-3.8553e-09
1.97737e-06
0.00158361
0.116557
-1.36796e-10
3.08816e-06
0.00172662
0.127852
3.29561e-06
0.00184686
0.137223
2.22321e-06
0.00193309
0.143923
-1.70699e-09
0.00197821
0.147413
-2.22683e-06
0.00197821
0.147413
-3.29977e-06
0.00193309
0.143923
-3.09297e-06
0.00184685
0.137223
-1.98289e-06
0.00172662
0.127852
0.00158361
0.116557
-6.01382e-09
1.20042e-05
0.00224753
0.135252
-2.05789e-10
1.82373e-05
0.00243725
0.148129
1.75964e-05
0.00259614
0.158688
1.07548e-05
0.00270866
0.16618
-2.4269e-09
0.00276721
0.170064
-1.07598e-05
0.00276721
0.170064
-1.7602e-05
0.00270866
0.16618
-1.82437e-05
0.00259614
0.158688
-1.20111e-05
0.00243725
0.148129
0.00224753
0.135252
-7.48502e-09
2.57265e-05
0.0027427
0.142647
-3.08415e-10
3.84749e-05
0.00295487
0.156151
3.65493e-05
0.00313101
0.167093
2.20154e-05
0.00325399
0.174791
-3.0703e-09
0.00331752
0.178764
-2.20216e-05
0.00331752
0.178764
-3.65561e-05
0.00325399
0.174791
-3.84823e-05
0.00313101
0.167093
-2.57345e-05
0.00295488
0.156151
0.00274271
0.142647
-8.68703e-09
4.21953e-05
0.00300077
0.14146
-5.36489e-10
6.2201e-05
0.00320978
0.155009
5.86124e-05
0.00338103
0.165858
3.50769e-05
0.00349879
0.173431
-3.78718e-09
0.00355913
0.17732
-3.50846e-05
0.00355913
0.17732
-5.86205e-05
0.00349879
0.173431
-6.22096e-05
0.00338103
0.165858
-4.22042e-05
0.00320979
0.155009
0.00300077
0.14146
-9.5371e-09
6.03349e-05
0.00300482
0.134004
-8.8655e-10
8.80225e-05
0.00318953
0.14729
8.25289e-05
0.00333833
0.157814
4.92046e-05
0.00343914
0.165106
-4.52569e-09
0.00349039
0.168834
-4.92137e-05
0.00349039
0.168834
-8.25381e-05
0.00343914
0.165106
-8.80319e-05
0.00333833
0.157814
-6.03444e-05
0.00318953
0.14729
0.00300482
0.134004
-9.97646e-09
7.93867e-05
0.00277851
0.122142
-1.17618e-09
0.000115308
0.00292471
0.135043
0.000107753
0.00304079
0.145164
6.40601e-05
0.00311859
0.152129
-5.13495e-09
0.00315789
0.155677
-6.40703e-05
0.00315789
0.155677
-0.000107763
0.00311859
0.152129
-0.000115318
0.0030408
0.145164
-7.9396e-05
0.00292472
0.135043
0.00277851
0.122142
-9.87538e-09
0.000100433
0.00237198
0.1073
-1.48935e-09
0.000145254
0.00247391
0.119801
0.000134935
0.00255507
0.129526
7.98671e-05
0.00260935
0.136177
-5.4345e-09
0.00263671
0.139551
-7.98778e-05
0.00263671
0.139551
-0.000134945
0.00260935
0.136177
-0.000145263
0.00255507
0.129526
-0.000100441
0.00247392
0.119801
0.00237198
0.1073
-8.83542e-09
0.000128248
0.0905118
-2.19168e-09
0.00184694
0.000181177
0.102662
0.00191056
0.000166153
0.112033
0.00196101
9.75658e-05
0.118403
0.00199583
-5.18845e-09
0.121624
0.0020134
-9.75757e-05
0.121624
0.0020134
-0.000166162
0.118403
0.00199583
-0.000181184
0.112033
0.00196101
-0.000128255
0.102662
0.00191057
0.0905118
-7.24028e-09
0.00184694
7.69162e-07
7.22898e-05
0.0333349
-1.13456e-10
5.78748e-07
8.09196e-05
0.0367845
4.42668e-07
8.85292e-05
0.0397024
2.25815e-07
9.44904e-05
0.0418177
-4.35582e-10
9.77025e-05
0.042929
-2.26702e-07
9.77024e-05
0.042929
-4.43621e-07
9.44903e-05
0.0418177
-5.79748e-07
8.85291e-05
0.0397024
-7.70242e-07
8.09195e-05
0.0367845
7.22901e-05
0.0333349
-1.35502e-09
2.92795e-06
0.000280527
0.0833951
-2.02351e-10
3.44258e-06
0.000310685
0.0916847
2.92496e-06
0.000336894
0.0986327
1.65945e-06
0.000356548
0.103637
-9.89164e-10
0.000367034
0.106255
-1.66145e-06
0.000367034
0.106255
-2.92709e-06
0.000356547
0.103637
-3.44485e-06
0.000336894
0.0986327
-2.93032e-06
0.000310684
0.0916847
0.000280527
0.0833951
-2.58603e-09
6.30097e-06
0.00055897
0.116272
-2.49494e-10
8.46401e-06
0.000614485
0.127547
7.55243e-06
0.000662314
0.136898
4.39985e-06
0.000697387
0.143585
-1.55916e-09
0.000715967
0.147069
-4.40301e-06
0.000715967
0.147069
-7.55577e-06
0.000697387
0.143585
-8.46759e-06
0.000662314
0.136898
-6.30471e-06
0.000614485
0.127547
0.00055897
0.116272
-4.12933e-09
1.11782e-05
0.000836181
0.134964
-3.14415e-10
1.58248e-05
0.000912764
0.147826
1.44814e-05
0.00097821
0.158374
8.53175e-06
0.00102543
0.165858
-2.04494e-09
0.00105027
0.169738
-8.5359e-06
0.00105027
0.169738
-1.44857e-05
0.00102543
0.165858
-1.58294e-05
0.00097821
0.158374
-1.1183e-05
0.000912765
0.147826
0.000836181
0.134964
-5.23748e-09
1.7556e-05
0.00105723
0.142408
-3.80745e-10
2.53161e-05
0.00114562
0.155911
2.34223e-05
0.00122044
0.166852
1.38639e-05
0.00127363
0.174553
-2.41831e-09
0.0013014
0.178527
-1.38688e-05
0.0013014
0.178527
-2.34275e-05
0.00127364
0.174553
-2.53215e-05
0.00122044
0.166852
-1.75616e-05
0.00114563
0.155911
0.00105723
0.142408
-6.16007e-09
2.52362e-05
0.0011879
0.141305
-4.65053e-10
3.6537e-05
0.00127732
0.154866
3.39402e-05
0.00135208
0.165729
2.0122e-05
0.00140448
0.173314
-2.8178e-09
0.0014316
0.17721
-2.01277e-05
0.0014316
0.17721
-3.39461e-05
0.00140448
0.173314
-3.65431e-05
0.00135209
0.165729
-2.52424e-05
0.00127732
0.154866
0.0011879
0.141305
-6.80412e-09
3.38471e-05
0.00121502
0.133943
-5.77222e-10
4.89707e-05
0.00129584
0.147257
4.55423e-05
0.0013624
0.157807
2.70075e-05
0.0014084
0.16512
-3.19984e-09
0.00143202
0.168861
-2.70139e-05
0.00143202
0.168861
-4.55488e-05
0.0014084
0.16512
-4.89773e-05
0.00136241
0.157807
-3.38537e-05
0.00129584
0.147257
0.00121502
0.133943
-7.0665e-09
4.3017e-05
0.00114367
0.122171
-9.27717e-10
6.22041e-05
0.001209
0.135111
5.78319e-05
0.00126205
0.145269
3.42708e-05
0.00129826
0.152263
-3.52479e-09
0.00131672
0.155826
-3.42778e-05
0.00131672
0.155826
-5.78389e-05
0.00129826
0.152263
-6.22109e-05
0.00126205
0.145269
-4.30234e-05
0.00120901
0.135111
0.00114367
0.122171
-7.09548e-09
5.28164e-05
0.000992453
0.107399
-1.19948e-09
7.61544e-05
0.00103914
0.119948
7.05592e-05
0.00107673
0.129717
4.17076e-05
0.00110219
0.136402
-3.79853e-09
0.00111509
0.139795
-4.17151e-05
0.00111509
0.139795
-7.05664e-05
0.00110219
0.136402
-7.61611e-05
0.00107673
0.129717
-5.28225e-05
0.00103914
0.119948
0.000992454
0.107399
-6.43912e-09
6.37372e-05
0.0906525
-1.0871e-09
0.000787991
9.05346e-05
0.102857
0.000817312
8.32899e-05
0.112277
0.000840399
4.90164e-05
0.118683
0.000856364
-3.93967e-09
0.121923
0.000864457
-4.90241e-05
0.121923
0.000864457
-8.3297e-05
0.118683
0.000856365
-9.05412e-05
0.112277
0.0008404
-6.37428e-05
0.102857
0.000817313
0.0906525
-5.44528e-09
0.000787991
-6.5985e-07
4.41297e-05
0.0332914
-7.0057e-11
-9.96781e-07
4.82672e-05
0.0367366
-8.59406e-07
5.16006e-05
0.0396506
-4.89536e-07
5.40537e-05
0.0417633
-3.57014e-10
5.53286e-05
0.0428732
4.88797e-07
5.53285e-05
0.0428732
8.58649e-07
5.40538e-05
0.0417633
9.96005e-07
5.16007e-05
0.0396506
6.59059e-07
4.82673e-05
0.0367366
4.41297e-05
0.0332914
-9.22076e-10
-7.54425e-07
0.000141273
0.0832987
-7.31631e-11
-1.16022e-06
0.000154683
0.0915787
-1.01509e-06
0.000165821
0.0985183
-5.69432e-07
0.000173946
0.103516
-7.67276e-10
0.000178212
0.106131
5.67829e-07
0.000178212
0.106131
1.01345e-06
0.000173946
0.103516
1.15851e-06
0.000165821
0.0985183
7.5268e-07
0.000154683
0.0915787
0.000141273
0.0832987
-1.76869e-09
9.63709e-08
0.000263366
0.11615
-9.6114e-11
1.48433e-07
0.000287952
0.127413
1.94434e-07
0.000308601
0.136755
1.56081e-07
0.000323503
0.143436
-1.18702e-09
0.000331333
0.146916
-1.58504e-07
0.000331333
0.146916
-1.96936e-07
0.000323503
0.143436
-1.50941e-07
0.000308601
0.136755
-9.90775e-08
0.000287952
0.127413
0.000263366
0.11615
-2.84682e-09
1.77824e-06
0.000384883
0.13484
-1.20935e-10
2.69025e-06
0.000419341
0.147694
2.60478e-06
0.000448285
0.158234
1.59723e-06
0.000468976
0.165713
-1.50901e-09
0.000479807
0.169591
-1.60028e-06
0.000479807
0.169591
-2.60794e-06
0.000468976
0.165713
-2.69355e-06
0.000448285
0.158234
-1.78162e-06
0.000419341
0.147694
0.000384883
0.13484
-3.65013e-09
4.23078e-06
0.000483797
0.142305
-1.64831e-10
6.34034e-06
0.000524528
0.155803
6.04245e-06
0.000558566
0.166742
3.64809e-06
0.000582632
0.174441
-1.71941e-09
0.00059516
0.178415
-3.65154e-06
0.00059516
0.178415
-6.04598e-06
0.000582633
0.174441
-6.34398e-06
0.000558566
0.166742
-4.23451e-06
0.000524529
0.155803
0.000483797
0.142305
-4.26368e-09
7.35105e-06
0.000544919
0.141236
-2.65891e-10
1.08998e-05
0.000587319
0.1548
1.03184e-05
0.000622412
0.165666
6.19321e-06
0.000646927
0.173254
-1.94368e-09
0.000659605
0.177152
-6.19708e-06
0.000659605
0.177152
-1.03223e-05
0.000646927
0.173254
-1.09038e-05
0.000622413
0.165666
-7.35499e-06
0.00058732
0.1548
0.000544921
0.141236
-4.67179e-09
1.09926e-05
0.000560982
0.133916
-4.29477e-10
1.6171e-05
0.00060056
0.147238
1.52469e-05
0.0006329
0.157798
9.12074e-06
0.000655222
0.165118
-2.18178e-09
0.000666687
0.168863
-9.12507e-06
0.000666687
0.168863
-1.52511e-05
0.000655222
0.165118
-1.61752e-05
0.000632901
0.157798
-1.09968e-05
0.000600561
0.147238
0.000560984
0.133915
-4.85852e-09
1.50438e-05
0.000532267
0.122184
-5.8486e-10
2.20483e-05
0.00056543
0.135139
2.07196e-05
0.00059223
0.145311
1.23581e-05
0.000610545
0.152316
-2.44361e-09
0.000619893
0.155885
-1.23629e-05
0.000619893
0.155885
-2.07244e-05
0.000610546
0.152316
-2.2053e-05
0.000592231
0.145311
-1.50484e-05
0.000565431
0.135139
0.000532269
0.122184
-4.97087e-09
1.97078e-05
0.000465136
0.107446
-5.23986e-10
2.86984e-05
0.000489858
0.120014
2.67853e-05
0.000509797
0.129801
1.58994e-05
0.000523341
0.1365
-2.75309e-09
0.000530219
0.1399
-1.59049e-05
0.000530219
0.1399
-2.67908e-05
0.000523341
0.1365
-2.87037e-05
0.000509798
0.129801
-1.97129e-05
0.00048986
0.120014
0.000465137
0.107446
-4.75719e-09
2.56342e-05
0.090722
-5.07754e-10
0.000369988
3.64637e-05
0.102949
0.000386465
3.36339e-05
0.11239
0.000399557
1.98243e-05
0.118812
0.000408628
-3.08648e-09
0.12206
0.000413234
-1.98305e-05
0.12206
0.000413234
-3.364e-05
0.118812
0.000408629
-3.64697e-05
0.11239
0.000399558
-2.56395e-05
0.102949
0.000386466
0.090722
-4.27893e-09
0.000369988
6.47208e-08
1.21768e-05
0.0332791
-3.63846e-11
1.39261e-08
1.36025e-05
0.036723
4.79816e-10
1.48629e-05
0.0396358
-3.83686e-09
1.58485e-05
0.0417474
-2.91767e-10
1.63813e-05
0.0428568
3.26143e-09
1.63813e-05
0.0428568
-1.04404e-09
1.58484e-05
0.0417474
-1.44222e-08
1.48628e-05
0.0396358
-6.52267e-08
1.36025e-05
0.036723
1.21769e-05
0.0332791
-6.35757e-10
3.46426e-07
4.77618e-05
0.0832627
-1.16207e-11
3.70716e-07
5.29277e-05
0.0915393
3.05729e-07
5.74195e-05
0.0984758
1.70611e-07
6.07982e-05
0.103471
-6.11385e-10
6.26043e-05
0.106085
-1.7183e-07
6.26043e-05
0.106085
-3.06959e-07
6.07981e-05
0.103471
-3.71939e-07
5.74193e-05
0.0984758
-3.47604e-07
5.29276e-05
0.0915393
4.7762e-05
0.0832627
-1.2303e-09
8.78913e-07
9.66042e-05
0.1161
-3.73393e-11
1.15757e-06
0.000106433
0.127359
1.02802e-06
0.000114918
0.136698
5.98185e-07
0.000121174
0.143376
-9.19987e-10
0.000124498
0.146855
-6.00031e-07
0.000124497
0.146855
-1.02988e-06
0.000121174
0.143376
-1.15941e-06
0.000114918
0.136698
-8.80716e-07
0.000106433
0.127359
9.66046e-05
0.1161
-1.94541e-09
1.71788e-06
0.000147068
0.134788
-7.66204e-11
2.41936e-06
0.000161113
0.147639
2.21433e-06
0.000173162
0.158176
1.30578e-06
0.000181921
0.165653
-1.17487e-09
0.000186547
0.169531
-1.30814e-06
0.000186547
0.169531
-2.21672e-06
0.000181921
0.165653
-2.42174e-06
0.000173162
0.158176
-1.72022e-06
0.000161113
0.147639
0.000147068
0.134788
-2.48588e-09
2.87754e-06
0.000189461
0.14226
-1.47493e-10
4.14657e-06
0.000206287
0.155757
3.84273e-06
0.000220607
0.166695
2.27803e-06
0.000230889
0.174394
-1.36364e-09
0.000236284
0.178368
-2.28078e-06
0.000236283
0.178368
-3.84552e-06
0.000230888
0.174394
-4.14935e-06
0.000220607
0.166695
-2.8803e-06
0.000206286
0.155757
0.000189461
0.14226
-2.84947e-09
4.33779e-06
0.000216972
0.141204
-1.94274e-10
6.29176e-06
0.000234659
0.15477
5.85938e-06
0.000249556
0.165637
3.48036e-06
0.000260117
0.173227
-1.56491e-09
0.000265621
0.177126
-3.48353e-06
0.000265621
0.177126
-5.86262e-06
0.000260117
0.173227
-6.29505e-06
0.000249555
0.165637
-4.34103e-06
0.000234659
0.15477
0.000216972
0.141204
-3.14783e-09
6.04404e-06
0.000226107
0.1339
-2.21234e-10
8.77717e-06
0.000242737
0.147227
8.18821e-06
0.000256559
0.157791
4.86583e-06
0.000266237
0.165116
-1.74984e-09
0.000271244
0.168862
-4.86938e-06
0.000271244
0.168862
-8.19187e-06
0.000266237
0.165116
-8.78094e-06
0.000256559
0.157791
-6.04778e-06
0.000242737
0.147227
0.000226108
0.1339