/*--------------------------------*- C++ -*----------------------------------*\
| =========                 |                                                 |
| \\      /  F ield         | OpenFOAM: The Open Source CFD Toolbox           |
|  \\    /   O peration     | Version:  2106                                  |
|   \\  /    A nd           | Website:  www.openfoam.com                      |
|    \\/     M anipulation  |                                                 |
\*---------------------------------------------------------------------------*/
FoamFile
{
    version     2.0;
    format      ascii;
    arch        "LSB;label=32;scalar=64";
    class       volVectorField;
    location    "0.12";
    object      U;
}
// * * * * * * * * * * * * * * * * * * * * * * * * * * * * * * * * * * * * * //

dimensions      [0 1 -1 0 0 0 0];

internalField   nonuniform List<vector> 
10000
(
(0.0482142 0.0567325 0.273126)
(0.0411407 0.064416 0.284466)
(0.0307523 0.0713912 0.293384)
(0.0190814 0.07627 0.299533)
(0.00646766 0.0787954 0.302656)
(-0.00646766 0.0787954 0.302656)
(-0.0190814 0.07627 0.299533)
(-0.0307523 0.0713912 0.293384)
(-0.0411407 0.064416 0.284466)
(-0.0482142 0.0567325 0.273126)
(0.128611 0.152533 0.570154)
(0.108443 0.172258 0.584979)
(0.0808695 0.189641 0.59604)
(0.0499839 0.20166 0.603488)
(0.016911 0.207851 0.607204)
(-0.016911 0.207851 0.607204)
(-0.0499839 0.20166 0.603488)
(-0.0808695 0.189641 0.59604)
(-0.108443 0.172258 0.584979)
(-0.128611 0.152533 0.570154)
(0.161123 0.191433 0.718586)
(0.134162 0.213101 0.729986)
(0.0992502 0.232087 0.737924)
(0.0609742 0.245006 0.743119)
(0.0205669 0.251603 0.745651)
(-0.0205669 0.251603 0.745651)
(-0.0609743 0.245006 0.743119)
(-0.0992503 0.232087 0.737924)
(-0.134162 0.213101 0.729986)
(-0.161123 0.191433 0.718586)
(0.165671 0.196703 0.79095)
(0.136409 0.215657 0.797949)
(0.100116 0.23237 0.802268)
(0.0611464 0.243549 0.804966)
(0.0205654 0.249203 0.806228)
(-0.0205654 0.249203 0.806228)
(-0.0611465 0.243549 0.804966)
(-0.100116 0.23237 0.802268)
(-0.136409 0.215657 0.797949)
(-0.165671 0.196703 0.79095)
(0.157927 0.18737 0.82406)
(0.128782 0.202461 0.827421)
(0.0938597 0.215969 0.828908)
(0.0570243 0.224864 0.829702)
(0.0191301 0.229318 0.830018)
(-0.0191301 0.229318 0.830018)
(-0.0570244 0.224864 0.829702)
(-0.0938597 0.215968 0.828908)
(-0.128782 0.202461 0.827421)
(-0.157927 0.18737 0.82406)
(0.144525 0.171349 0.836579)
(0.116818 0.182543 0.83734)
(0.0846072 0.192802 0.836914)
(0.0511544 0.199471 0.836454)
(0.0171211 0.202774 0.836157)
(-0.0171212 0.202774 0.836157)
(-0.0511545 0.19947 0.836454)
(-0.0846072 0.192802 0.836914)
(-0.116818 0.182543 0.83734)
(-0.144525 0.171349 0.836579)
(0.12865 0.152309 0.838586)
(0.103091 0.159913 0.837672)
(0.0742363 0.167146 0.836105)
(0.0446821 0.171808 0.834916)
(0.0149226 0.174095 0.834274)
(-0.0149227 0.174095 0.834274)
(-0.0446822 0.171808 0.834916)
(-0.0742364 0.167146 0.836105)
(-0.103091 0.159913 0.837672)
(-0.12865 0.152309 0.838586)
(0.112146 0.132416 0.835641)
(0.0890994 0.136888 0.833766)
(0.0638325 0.141428 0.831635)
(0.0382671 0.144363 0.8301)
(0.0127557 0.145797 0.829303)
(-0.0127558 0.145797 0.829303)
(-0.0382672 0.144363 0.8301)
(-0.0638325 0.141428 0.831635)
(-0.0890995 0.136888 0.833766)
(-0.112146 0.132416 0.835641)
(0.0961016 0.112958 0.830783)
(0.075772 0.114757 0.828423)
(0.0540404 0.11698 0.826109)
(0.0322896 0.11849 0.824489)
(0.0107457 0.119241 0.823663)
(-0.0107458 0.119241 0.823663)
(-0.0322897 0.11849 0.824489)
(-0.0540405 0.11698 0.826109)
(-0.075772 0.114757 0.828423)
(-0.0961016 0.112958 0.830783)
(0.0812845 0.0946207 0.825681)
(0.0638349 0.0933808 0.823089)
(0.0452299 0.0939676 0.8208)
(0.0269335 0.0944752 0.819246)
(0.00894973 0.0947447 0.818464)
(-0.00894987 0.0947447 0.818464)
(-0.0269337 0.0944752 0.819246)
(-0.0452301 0.0939675 0.8208)
(-0.063835 0.0933808 0.823089)
(-0.0812846 0.0946207 0.82568)
(0.0085711 0.0110012 0.234646)
(0.00716124 0.0135188 0.245405)
(0.0054079 0.0155123 0.254228)
(0.00341675 0.0168759 0.260372)
(0.00116877 0.0175847 0.263517)
(-0.00116877 0.0175847 0.263517)
(-0.00341676 0.0168759 0.260372)
(-0.00540791 0.0155123 0.254228)
(-0.00716125 0.0135188 0.245405)
(-0.00857111 0.0110012 0.234646)
(0.0369742 0.0451007 0.54465)
(0.0314984 0.0540593 0.562874)
(0.0239992 0.0616187 0.577509)
(0.0151242 0.0669227 0.587562)
(0.00516863 0.0696925 0.592658)
(-0.00516864 0.0696925 0.592658)
(-0.0151243 0.0669227 0.587562)
(-0.0239992 0.0616187 0.577509)
(-0.0314984 0.0540593 0.562874)
(-0.0369742 0.0451007 0.54465)
(0.0625481 0.0753473 0.744634)
(0.0528557 0.0885287 0.762912)
(0.0399671 0.0996659 0.777237)
(0.0250002 0.107414 0.786922)
(0.00851151 0.111429 0.791778)
(-0.00851153 0.111429 0.791778)
(-0.0250002 0.107414 0.786922)
(-0.0399672 0.0996659 0.777237)
(-0.0528557 0.0885286 0.762912)
(-0.0625481 0.0753472 0.744634)
(0.0808632 0.0967525 0.86979)
(0.0676067 0.111617 0.884725)
(0.0506718 0.124106 0.896062)
(0.0314645 0.132687 0.903571)
(0.0106727 0.137096 0.907284)
(-0.0106727 0.137096 0.907284)
(-0.0314645 0.132687 0.903571)
(-0.0506718 0.124106 0.896062)
(-0.0676068 0.111617 0.884725)
(-0.0808632 0.0967525 0.86979)
(0.0913264 0.108733 0.944168)
(0.0755479 0.123331 0.954586)
(0.0561468 0.135504 0.962129)
(0.0346299 0.143762 0.966972)
(0.0117066 0.147967 0.969313)
(-0.0117067 0.147967 0.969313)
(-0.0346299 0.143762 0.966972)
(-0.0561469 0.135504 0.96213)
(-0.0755479 0.123331 0.954586)
(-0.0913265 0.108733 0.944168)
(0.0951996 0.112863 0.984591)
(0.077947 0.125951 0.990539)
(0.0574735 0.136763 0.994476)
(0.0352288 0.144011 0.99684)
(0.0118722 0.147668 0.997925)
(-0.0118723 0.147668 0.997925)
(-0.0352288 0.144011 0.99684)
(-0.0574736 0.136763 0.994476)
(-0.0779471 0.125951 0.990539)
(-0.0951997 0.112863 0.984591)
(0.0940314 0.111021 1.00304)
(0.0762213 0.121901 1.0052)
(0.0557893 0.130773 1.00619)
(0.0340031 0.136655 1.00658)
(0.0114268 0.139599 1.00667)
(-0.0114269 0.139599 1.00667)
(-0.0340032 0.136655 1.00658)
(-0.0557894 0.130773 1.00619)
(-0.0762214 0.121901 1.0052)
(-0.0940314 0.111021 1.00304)
(0.0892338 0.104894 1.00796)
(0.0716245 0.113234 1.00726)
(0.052077 0.119905 1.00612)
(0.031583 0.124294 1.00511)
(0.0105874 0.12648 1.00452)
(-0.0105875 0.12648 1.00452)
(-0.0315831 0.124294 1.00511)
(-0.0520771 0.119905 1.00612)
(-0.0716246 0.113234 1.00726)
(-0.0892339 0.104894 1.00796)
(0.0819675 0.0958044 1.0052)
(0.0652275 0.101483 1.00253)
(0.047152 0.105907 1.00002)
(0.0284777 0.108837 0.99814)
(0.00952673 0.110302 0.997133)
(-0.00952687 0.110302 0.997133)
(-0.0284779 0.108837 0.99814)
(-0.0471521 0.105907 1.00002)
(-0.0652277 0.101483 1.00253)
(-0.0819676 0.0958044 1.0052)
(0.0733356 0.0850719 0.998757)
(0.0580706 0.0873034 0.994795)
(0.0416946 0.0897027 0.991529)
(0.0250809 0.0913495 0.989199)
(0.00837505 0.0921812 0.987988)
(-0.00837521 0.0921812 0.987988)
(-0.025081 0.0913494 0.989199)
(-0.0416947 0.0897027 0.991528)
(-0.0580707 0.0873034 0.994795)
(-0.0733357 0.0850719 0.998757)
(0.000555982 0.000556268 0.159156)
(0.000635962 0.00071878 0.167377)
(0.000519179 0.000961865 0.174241)
(0.000355188 0.00115307 0.179104)
(0.000125402 0.00126138 0.18162)
(-0.000125405 0.00126138 0.18162)
(-0.000355192 0.00115307 0.179104)
(-0.000519185 0.000961862 0.174241)
(-0.00063597 0.000718775 0.167377)
(-0.000555992 0.000556261 0.159156)
(0.00997149 0.0114712 0.422001)
(0.00907739 0.013925 0.439831)
(0.00714093 0.016323 0.454478)
(0.00459596 0.0181081 0.464749)
(0.00158574 0.0190702 0.470026)
(-0.00158575 0.0190702 0.470026)
(-0.00459597 0.0181081 0.464749)
(-0.00714094 0.016323 0.454478)
(-0.00907742 0.013925 0.439831)
(-0.00997151 0.0114712 0.422001)
(0.0217335 0.0252305 0.626147)
(0.0192672 0.0300496 0.647771)
(0.0149665 0.0345491 0.66521)
(0.00952497 0.0378385 0.677297)
(0.00326916 0.0395894 0.683462)
(-0.00326918 0.0395894 0.683462)
(-0.00952499 0.0378385 0.677297)
(-0.0149666 0.0345491 0.66521)
(-0.0192673 0.0300496 0.647771)
(-0.0217335 0.0252305 0.626147)
(0.0333441 0.0388639 0.777333)
(0.0290308 0.0454822 0.79854)
(0.0223058 0.0515061 0.815271)
(0.014073 0.0558379 0.826709)
(0.00480979 0.05812 0.832494)
(-0.00480981 0.05812 0.832494)
(-0.014073 0.0558379 0.826709)
(-0.0223059 0.051506 0.815271)
(-0.0290308 0.0454822 0.79854)
(-0.0333441 0.0388639 0.777333)
(0.0425229 0.0496098 0.884276)
(0.0364822 0.0570896 0.90255)
(0.0277611 0.0637819 0.916583)
(0.0173856 0.068526 0.926019)
(0.00592045 0.0710022 0.93074)
(-0.00592048 0.0710022 0.93074)
(-0.0173857 0.068526 0.926019)
(-0.0277612 0.0637819 0.916583)
(-0.0364823 0.0570896 0.90255)
(-0.0425229 0.0496098 0.884276)
(0.0485305 0.0565589 0.956337)
(0.0411039 0.0640132 0.970529)
(0.0310058 0.0705937 0.981065)
(0.0192903 0.0752023 0.988)
(0.00654789 0.0775876 0.991423)
(-0.00654793 0.0775876 0.991423)
(-0.0192904 0.0752023 0.988)
(-0.0310058 0.0705937 0.981065)
(-0.041104 0.0640131 0.970529)
(-0.0485306 0.0565588 0.956337)
(0.0514479 0.0598121 1.00214)
(0.0430654 0.0665581 1.01209)
(0.0322275 0.0724371 1.01915)
(0.0199319 0.0765138 1.02366)
(0.00674598 0.0786089 1.02584)
(-0.00674604 0.0786089 1.02584)
(-0.019932 0.0765138 1.02366)
(-0.0322275 0.0724371 1.01915)
(-0.0430655 0.0665581 1.01209)
(-0.051448 0.0598121 1.00214)
(0.0516852 0.0598661 1.02908)
(0.0427898 0.0654319 1.03523)
(0.0317896 0.0702104 1.03931)
(0.0195569 0.0735026 1.04179)
(0.00660177 0.0751864 1.04294)
(-0.00660185 0.0751864 1.04294)
(-0.019557 0.0735026 1.04179)
(-0.0317897 0.0702104 1.03931)
(-0.0427899 0.0654318 1.03523)
(-0.0516853 0.0598661 1.02908)
(0.0497818 0.057341 1.04313)
(0.0408078 0.0614303 1.04623)
(0.0301104 0.064872 1.04802)
(0.0184336 0.0672468 1.04897)
(0.00620735 0.0684612 1.04936)
(-0.00620745 0.0684612 1.04936)
(-0.0184337 0.0672468 1.04897)
(-0.0301105 0.064872 1.04802)
(-0.0408079 0.0614303 1.04623)
(-0.0497819 0.057341 1.04313)
(0.046414 0.0530993 1.04888)
(0.0377221 0.0551222 1.04977)
(0.0275872 0.0571723 1.04998)
(0.0167968 0.0586021 1.04988)
(0.00564152 0.0593336 1.04976)
(-0.00564164 0.0593336 1.04976)
(-0.0167969 0.0586021 1.04988)
(-0.0275873 0.0571724 1.04998)
(-0.0377222 0.0551222 1.04977)
(-0.0464141 0.0530993 1.04888)
(0.000497851 0.000673249 0.151149)
(0.000379125 0.000841629 0.158564)
(0.000255047 0.000954637 0.164631)
(0.000153639 0.00101834 0.168905)
(5.10404e-05 0.00104887 0.17111)
(-5.1043e-05 0.00104886 0.17111)
(-0.000153643 0.00101834 0.168905)
(-0.000255052 0.000954635 0.164631)
(-0.000379131 0.000841626 0.158564)
(-0.000497858 0.000673243 0.151149)
(0.00365953 0.00446949 0.405189)
(0.00312206 0.00548774 0.422077)
(0.00236681 0.00634214 0.435757)
(0.00149545 0.00693759 0.445321)
(0.000511588 0.00724974 0.450233)
(-0.000511595 0.00724973 0.450233)
(-0.00149546 0.00693759 0.445321)
(-0.00236683 0.00634213 0.435757)
(-0.00312207 0.00548773 0.422077)
(-0.00365955 0.00446948 0.405189)
(0.00831821 0.0099847 0.608753)
(0.00715072 0.0120698 0.630254)
(0.0054663 0.0138603 0.647428)
(0.00345381 0.0151279 0.659323)
(0.00118174 0.0157937 0.665396)
(-0.00118175 0.0157937 0.665396)
(-0.00345383 0.0151279 0.659323)
(-0.00546632 0.0138603 0.647428)
(-0.00715075 0.0120698 0.630254)
(-0.00831824 0.00998468 0.608753)
(0.0134625 0.0160453 0.765912)
(0.0115357 0.019108 0.788143)
(0.0088041 0.0217477 0.805591)
(0.00554309 0.0236147 0.817536)
(0.00189328 0.024592 0.823589)
(-0.0018933 0.024592 0.823589)
(-0.00554312 0.0236147 0.817536)
(-0.00880413 0.0217477 0.805591)
(-0.0115358 0.019108 0.788143)
(-0.0134625 0.0160453 0.765912)
(0.0181469 0.0215283 0.882783)
(0.0154409 0.0252512 0.903126)
(0.0117257 0.0284477 0.918748)
(0.00734715 0.0306941 0.929291)
(0.00250345 0.0318633 0.934587)
(-0.00250348 0.0318633 0.934587)
(-0.00734718 0.0306941 0.929291)
(-0.0117257 0.0284477 0.918748)
(-0.015441 0.0252512 0.903126)
(-0.0181469 0.0215283 0.882783)
(0.0218366 0.0258009 0.96649)
(0.01842 0.0297921 0.983488)
(0.0138995 0.0331906 0.996202)
(0.00866347 0.0355592 1.00464)
(0.00294423 0.0367842 1.00883)
(-0.00294427 0.0367842 1.00883)
(-0.00866351 0.0355592 1.00464)
(-0.0138995 0.0331906 0.996202)
(-0.0184201 0.0297921 0.983488)
(-0.0218367 0.0258009 0.96649)
(0.0242931 0.0285873 1.02403)
(0.020299 0.0324707 1.03717)
(0.0152133 0.0357375 1.0467)
(0.00943222 0.0379951 1.05289)
(0.00319703 0.0391556 1.05593)
(-0.00319708 0.0391556 1.05593)
(-0.00943227 0.0379951 1.05289)
(-0.0152134 0.0357375 1.0467)
(-0.020299 0.0324707 1.03717)
(-0.0242931 0.0285873 1.02403)
(0.0254658 0.0298295 1.06177)
(0.0210719 0.0332842 1.07121)
(0.0156869 0.0361439 1.0778)
(0.00967687 0.0381066 1.08197)
(0.00327172 0.0391108 1.08398)
(-0.00327178 0.0391108 1.08398)
(-0.00967693 0.0381066 1.08197)
(-0.015687 0.0361439 1.0778)
(-0.021072 0.0332842 1.07121)
(-0.0254659 0.0298295 1.06177)
(0.0254378 0.0296001 1.08512)
(0.0208586 0.0323733 1.0914)
(0.0154284 0.0346211 1.09559)
(0.00947224 0.036163 1.09815)
(0.00319482 0.0369506 1.09935)
(-0.00319489 0.0369506 1.09935)
(-0.00947231 0.036163 1.09815)
(-0.0154284 0.0346211 1.09559)
(-0.0208587 0.0323733 1.0914)
(-0.0254379 0.0296001 1.08512)
(0.0244453 0.0282187 1.09835)
(0.0198904 0.0298742 1.10231)
(0.0145917 0.0313824 1.10477)
(0.00891228 0.0324232 1.10616)
(0.00299829 0.0329545 1.10678)
(-0.00299835 0.0329545 1.10678)
(-0.00891234 0.0324233 1.10616)
(-0.0145918 0.0313824 1.10477)
(-0.0198905 0.0298742 1.10231)
(-0.0244453 0.0282187 1.09835)
(4.0082e-05 2.83364e-05 0.145126)
(5.15445e-05 4.14368e-05 0.152335)
(4.2013e-05 6.50698e-05 0.15824)
(2.98688e-05 8.39956e-05 0.162409)
(1.06008e-05 9.49496e-05 0.164562)
(-1.06042e-05 9.49494e-05 0.164562)
(-2.9872e-05 8.3995e-05 0.162409)
(-4.20168e-05 6.50683e-05 0.15824)
(-5.15493e-05 4.14342e-05 0.152335)
(-4.00877e-05 2.83318e-05 0.145126)
(0.00102743 0.00116362 0.391367)
(0.000947059 0.00144172 0.408003)
(0.00075029 0.00171801 0.42151)
(0.000487265 0.00192686 0.43098)
(0.000168732 0.00204079 0.435852)
(-0.00016874 0.00204079 0.435852)
(-0.000487273 0.00192686 0.43098)
(-0.000750299 0.001718 0.42151)
(-0.000947071 0.00144171 0.408003)
(-0.00102745 0.00116361 0.391367)
(0.00272315 0.00313985 0.591169)
(0.002447 0.00382637 0.612681)
(0.00192356 0.00447419 0.62993)
(0.0012367 0.00495744 0.641925)
(0.000426543 0.00521805 0.648062)
(-0.000426555 0.00521805 0.648062)
(-0.00123672 0.00495744 0.641925)
(-0.00192358 0.00447419 0.62993)
(-0.00244702 0.00382636 0.612681)
(-0.00272318 0.00313983 0.591169)
(0.00483317 0.00560683 0.748148)
(0.0042789 0.00673081 0.770851)
(0.00333837 0.00776681 0.788776)
(0.00213135 0.00853057 0.801114)
(0.00073278 0.00893908 0.807387)
(-0.000732797 0.00893908 0.807387)
(-0.00213136 0.00853057 0.801114)
(-0.00333839 0.0077668 0.788776)
(-0.00427893 0.0067308 0.770851)
(-0.0048332 0.00560681 0.748148)
(0.00696246 0.00809002 0.867534)
(0.00608998 0.00956626 0.888861)
(0.00471567 0.0109058 0.905386)
(0.00299214 0.0118827 0.916623)
(0.00102571 0.0124014 0.922295)
(-0.00102573 0.0124014 0.922295)
(-0.00299217 0.0118827 0.916623)
(-0.00471569 0.0109058 0.905386)
(-0.00609001 0.00956625 0.888861)
(-0.0069625 0.00809 0.867534)
(0.00882512 0.0102462 0.955485)
(0.00763395 0.0119269 0.973913)
(0.00586687 0.0134318 0.987886)
(0.00370091 0.0145185 0.997259)
(0.00126509 0.0150916 1.00195)
(-0.00126511 0.0150916 1.00195)
(-0.00370094 0.0145185 0.997259)
(-0.00586691 0.0134318 0.987886)
(-0.00763398 0.0119269 0.973913)
(-0.00882516 0.0102462 0.955485)
(0.0102429 0.0118637 1.01815)
(0.00876616 0.0135803 1.03304)
(0.00668723 0.015097 1.04406)
(0.00419487 0.0161825 1.05135)
(0.00142999 0.0167514 1.05496)
(-0.00143002 0.0167514 1.05496)
(-0.00419491 0.0161825 1.05135)
(-0.00668727 0.015097 1.04406)
(-0.0087662 0.0135803 1.03304)
(-0.010243 0.0118637 1.01815)
(0.0111258 0.0128349 1.06124)
(0.00942314 0.0144257 1.0726)
(0.00713692 0.0158101 1.08081)
(0.00445303 0.0167935 1.08614)
(0.00151395 0.0173063 1.08875)
(-0.00151399 0.0173063 1.08875)
(-0.00445307 0.0167935 1.08614)
(-0.00713696 0.0158101 1.08081)
(-0.00942319 0.0144257 1.0726)
(-0.0111258 0.0128349 1.06124)
(0.0114635 0.0131397 1.08968)
(0.00961367 0.014467 1.09795)
(0.00722807 0.0155973 1.10378)
(0.00448551 0.0163967 1.1075)
(0.00152077 0.0168118 1.10929)
(-0.00152081 0.0168118 1.10929)
(-0.00448555 0.0163967 1.1075)
(-0.00722812 0.0155973 1.10378)
(-0.00961371 0.014467 1.09795)
(-0.0114635 0.0131397 1.08968)
(0.0113304 0.0129048 1.10739)
(0.00940272 0.0137571 1.11339)
(0.00699869 0.0145385 1.11745)
(0.00431516 0.015088 1.11995)
(0.0014583 0.0153717 1.12113)
(-0.00145834 0.0153717 1.12113)
(-0.0043152 0.015088 1.11995)
(-0.00699873 0.0145385 1.11745)
(-0.00940276 0.0137571 1.11339)
(-0.0113304 0.0129048 1.10739)
(5.73615e-05 7.87356e-05 0.144212)
(4.11634e-05 9.88835e-05 0.151333)
(2.5228e-05 0.000110907 0.157143)
(1.44019e-05 0.000116557 0.161239)
(4.60281e-06 0.000118958 0.163353)
(-4.60552e-06 0.000118957 0.163353)
(-1.44049e-05 0.000116556 0.161239)
(-2.52314e-05 0.000110905 0.157143)
(-4.1167e-05 9.88812e-05 0.151333)
(-5.73658e-05 7.87322e-05 0.144212)
(0.000472799 0.000578704 0.388841)
(0.000398898 0.000713508 0.405311)
(0.000298408 0.000823564 0.41864)
(0.000187276 0.000898903 0.427976)
(6.38034e-05 0.000938121 0.432776)
(-6.3809e-05 0.00093812 0.432776)
(-0.000187282 0.000898901 0.427976)
(-0.000298416 0.00082356 0.41864)
(-0.000398906 0.000713503 0.405312)
(-0.000472809 0.000578697 0.388841)
(0.001183 0.00141977 0.587767)
(0.00101743 0.00173105 0.60916)
(0.000777122 0.00199667 0.626267)
(0.000491254 0.00218509 0.638153)
(0.000168094 0.00228434 0.644234)
(-0.000168103 0.00228433 0.644234)
(-0.000491264 0.00218509 0.638153)
(-0.000777134 0.00199667 0.626267)
(-0.00101744 0.00173104 0.60916)
(-0.00118302 0.00141975 0.587767)
(0.00208002 0.00247683 0.744853)
(0.0017944 0.00298563 0.76759)
(0.00137661 0.00342601 0.785505)
(0.000870432 0.00374095 0.797833)
(0.000297934 0.00390703 0.804102)
(-0.000297948 0.00390703 0.804102)
(-0.000870447 0.00374094 0.797833)
(-0.00137662 0.003426 0.785505)
(-0.00179442 0.00298562 0.76759)
(-0.00208004 0.00247682 0.744853)
(0.00302555 0.00358522 0.865281)
(0.00260264 0.00426788 0.886857)
(0.00199399 0.00486025 0.903559)
(0.00125781 0.00528354 0.914922)
(0.000430049 0.0055062 0.920659)
(-0.000430066 0.0055062 0.920659)
(-0.00125783 0.00528354 0.914922)
(-0.00199401 0.00486024 0.903559)
(-0.00260266 0.00426787 0.886857)
(-0.00302557 0.0035852 0.865281)
(0.0039031 0.00460618 0.955019)
(0.0033381 0.0054077 0.973927)
(0.00254735 0.0061006 0.988272)
(0.00160103 0.00659352 0.997908)
(0.000546419 0.00685174 1.00274)
(-0.000546441 0.00685174 1.00274)
(-0.00160106 0.00659352 0.997908)
(-0.00254737 0.0061006 0.988272)
(-0.00333812 0.00540769 0.973927)
(-0.00390313 0.00460617 0.955019)
(0.00462325 0.00543356 1.01997)
(0.00392446 0.00628152 1.03555)
(0.0029791 0.00700864 1.04712)
(0.00186445 0.00752287 1.05478)
(0.000634976 0.00779103 1.05859)
(-0.000635002 0.00779103 1.05859)
(-0.00186448 0.00752287 1.05478)
(-0.00297913 0.00700863 1.04712)
(-0.00392449 0.00628151 1.03555)
(-0.00462328 0.00543355 1.01997)
(0.00512481 0.00599343 1.06561)
(0.00431385 0.00680986 1.07782)
(0.0032558 0.00750183 1.0867)
(0.00202851 0.00798847 1.0925)
(0.000689289 0.00824116 1.09536)
(-0.000689319 0.00824116 1.09536)
(-0.00202854 0.00798847 1.0925)
(-0.00325583 0.00750183 1.0867)
(-0.00431388 0.00680986 1.07782)
(-0.00512484 0.00599342 1.06561)
(0.00537929 0.0062444 1.09662)
(0.00449018 0.00695544 1.10585)
(0.00336798 0.00754776 1.11245)
(0.00208844 0.00796321 1.1167)
(0.000707917 0.00817814 1.11876)
(-0.000707948 0.00817814 1.11876)
(-0.00208848 0.00796321 1.1167)
(-0.00336801 0.00754777 1.11245)
(-0.00449021 0.00695545 1.10585)
(-0.00537932 0.0062444 1.09662)
(0.00540112 0.00621926 1.11671)
(0.00446871 0.00670545 1.12378)
(0.00332219 0.00714043 1.12866)
(0.00204833 0.00744454 1.13173)
(0.000692286 0.00760119 1.1332)
(-0.000692316 0.00760119 1.1332)
(-0.00204836 0.00744455 1.13173)
(-0.00332221 0.00714044 1.12866)
(-0.00446874 0.00670546 1.12377)
(-0.00540114 0.00621926 1.11671)
(3.73083e-06 1.80181e-06 0.143415)
(5.07557e-06 3.1526e-06 0.150508)
(3.9308e-06 5.77866e-06 0.156298)
(2.87976e-06 7.83868e-06 0.160381)
(1.01831e-06 9.04522e-06 0.162489)
(-1.0208e-06 9.04501e-06 0.162489)
(-2.88236e-06 7.83808e-06 0.160381)
(-3.93356e-06 5.77766e-06 0.156298)
(-5.07834e-06 3.15104e-06 0.150508)
(-3.73385e-06 1.79954e-06 0.143415)
(0.000144106 0.000163385 0.386853)
(0.000131647 0.000203289 0.403275)
(0.000103594 0.000242087 0.416567)
(6.71391e-05 0.000271263 0.425881)
(2.32121e-05 0.000287174 0.430671)
(-2.32177e-05 0.000287173 0.430671)
(-6.71449e-05 0.000271261 0.425881)
(-0.0001036 0.000242084 0.416567)
(-0.000131653 0.000203285 0.403275)
(-0.000144113 0.000163381 0.386853)
(0.000408811 0.000471761 0.585031)
(0.000366479 0.000578959 0.606391)
(0.000287902 0.00067895 0.623478)
(0.000185237 0.000753684 0.635358)
(6.39054e-05 0.000794084 0.641437)
(-6.39142e-05 0.000794083 0.641437)
(-0.000185246 0.000753682 0.635358)
(-0.000287912 0.000678946 0.623478)
(-0.000366488 0.000578953 0.606391)
(-0.000408821 0.000471754 0.585031)
(0.000766057 0.00088876 0.74183)
(0.000679567 0.00107715 0.764589)
(0.00053181 0.00124999 0.782537)
(0.000340535 0.00137829 0.794896)
(0.000117255 0.00144724 0.801184)
(-0.000117267 0.00144724 0.801184)
(-0.000340547 0.00137829 0.794896)
(-0.000531823 0.00124999 0.782537)
(-0.000679579 0.00107714 0.764589)
(-0.00076607 0.000888751 0.74183)
(0.0011606 0.00134787 0.862407)
(0.0010205 0.00161238 0.884089)
(0.000794678 0.00185248 0.900896)
(0.000506582 0.00202944 0.912343)
(0.000174075 0.00212404 0.918128)
(-0.000174089 0.00212404 0.918128)
(-0.000506596 0.00202943 0.912343)
(-0.000794693 0.00185248 0.900896)
(-0.00102052 0.00161237 0.884089)
(-0.00116062 0.00134786 0.862407)
(0.00154246 0.00178906 0.952661)
(0.00134458 0.00211 0.971769)
(0.00104115 0.00239849 0.986298)
(0.000660671 0.00260959 0.996078)
(0.000226528 0.00272186 1.00098)
(-0.000226544 0.00272186 1.00098)
(-0.000660688 0.00260959 0.996078)
(-0.00104117 0.00239849 0.986298)
(-0.0013446 0.00210999 0.971769)
(-0.00154247 0.00178905 0.952661)
(0.00187067 0.00216357 1.0184)
(0.00161636 0.00251184 1.03427)
(0.00124402 0.00282163 1.0461)
(0.000785689 0.00304672 1.05396)
(0.000268769 0.00316582 1.05787)
(-0.000268788 0.00316582 1.05787)
(-0.000785708 0.00304671 1.05396)
(-0.00124404 0.00282163 1.0461)
(-0.00161638 0.00251183 1.03427)
(-0.00187069 0.00216356 1.0184)
(0.00211511 0.00243519 1.065)
(0.00181119 0.00277755 1.07758)
(0.00138519 0.00307827 1.08678)
(0.000870613 0.00329529 1.09281)
(0.000297092 0.00340955 1.0958)
(-0.000297113 0.00340955 1.0958)
(-0.000870634 0.00329529 1.09281)
(-0.00138521 0.00307827 1.08678)
(-0.00181121 0.00277755 1.07758)
(-0.00211512 0.00243519 1.065)
(0.00226013 0.00258343 1.09704)
(0.00191781 0.00288743 1.1067)
(0.00145649 0.00314895 1.11366)
(0.000910508 0.0033365 1.11817)
(0.000309842 0.00343468 1.12038)
(-0.000309864 0.00343468 1.12038)
(-0.000910529 0.00333649 1.11817)
(-0.00145651 0.00314895 1.11366)
(-0.00191783 0.00288743 1.1067)
(-0.00226014 0.00258343 1.09704)
(0.00230768 0.0026227 1.11813)
(0.00193661 0.00283763 1.12568)
(0.00145547 0.00303088 1.13096)
(0.000903689 0.00316786 1.13431)
(0.000306443 0.00323899 1.13592)
(-0.000306466 0.00323899 1.13592)
(-0.00090371 0.00316786 1.13431)
(-0.00145549 0.00303088 1.13096)
(-0.00193663 0.00283763 1.12568)
(-0.0023077 0.0026227 1.11813)
(8.36216e-06 1.17702e-05 0.143273)
(5.66983e-06 1.48335e-05 0.150354)
(3.21076e-06 1.64858e-05 0.15613)
(1.73949e-06 1.71455e-05 0.160202)
(5.33433e-07 1.73873e-05 0.162304)
(-5.355e-07 1.73872e-05 0.162304)
(-1.74162e-06 1.71451e-05 0.160202)
(-3.21296e-06 1.64851e-05 0.15613)
(-5.67194e-06 1.48324e-05 0.150354)
(-8.36426e-06 1.17686e-05 0.143273)
(7.45305e-05 9.16003e-05 0.386432)
(6.2274e-05 0.000113066 0.402826)
(4.61792e-05 0.000130167 0.416088)
(2.88347e-05 0.000141724 0.42538)
(9.79315e-06 0.000147702 0.430157)
(-9.79758e-06 0.000147702 0.430157)
(-2.88393e-05 0.000141723 0.42538)
(-4.6184e-05 0.000130165 0.416088)
(-6.22786e-05 0.000113063 0.402826)
(-7.45348e-05 9.15967e-05 0.386432)
(0.000192943 0.000231822 0.584419)
(0.000165461 0.000283464 0.605753)
(0.000126088 0.000327078 0.622812)
(7.96156e-05 0.000357958 0.634669)
(2.72217e-05 0.000374218 0.640736)
(-2.72285e-05 0.000374217 0.640736)
(-7.96226e-05 0.000357957 0.634669)
(-0.000126095 0.000327076 0.622812)
(-0.000165468 0.00028346 0.605753)
(-0.00019295 0.000231817 0.584419)
(0.000349886 0.000416613 0.741172)
(0.000302071 0.00050458 0.763926)
(0.000231951 0.000580457 0.781862)
(0.000146809 0.000634896 0.794213)
(5.02728e-05 0.000663678 0.800496)
(-5.02814e-05 0.000663677 0.800496)
(-0.000146818 0.000634895 0.794213)
(-0.000231961 0.000580454 0.781862)
(-0.000302081 0.000504575 0.763926)
(-0.000349895 0.000416605 0.741172)
(0.000524872 0.000621539 0.861864)
(0.000453034 0.000744646 0.883577)
(0.000348186 0.000851581 0.900403)
(0.000220197 0.000928513 0.911865)
(7.53821e-05 0.000969163 0.917657)
(-7.53919e-05 0.000969163 0.917657)
(-0.000220207 0.000928512 0.911865)
(-0.000348197 0.000851578 0.900403)
(-0.000453047 0.000744641 0.883577)
(-0.000524884 0.000621531 0.861864)
(0.000698012 0.000822867 0.952385)
(0.000600221 0.000973591 0.971568)
(0.000460268 0.00110448 0.986157)
(0.000290367 0.00119847 0.995979)
(9.92882e-05 0.00124801 1.00091)
(-9.92993e-05 0.00124801 1.00091)
(-0.000290378 0.00119847 0.995979)
(-0.00046028 0.00110448 0.986157)
(-0.000600235 0.000973585 0.971568)
(-0.000698025 0.000822859 0.952385)
(0.000851333 0.000999178 1.01852)
(0.00072778 0.00116528 1.03451)
(0.000555874 0.0013088 1.04644)
(0.000349504 0.00141146 1.05437)
(0.00011931 0.00146537 1.05832)
(-0.000119323 0.00146537 1.05832)
(-0.000349517 0.00141145 1.05437)
(-0.000555888 0.0013088 1.04644)
(-0.000727795 0.00116528 1.03451)
(-0.000851348 0.000999171 1.01852)
(0.000970002 0.00113247 1.0656)
(0.00082336 0.00129895 1.07835)
(0.000625818 0.00144155 1.08768)
(0.000391946 0.00154306 1.09382)
(0.000133533 0.00159617 1.09685)
(-0.000133546 0.00159617 1.09685)
(-0.00039196 0.00154306 1.09382)
(-0.000625832 0.00144154 1.08768)
(-0.000823375 0.00129895 1.07835)
(-0.000970017 0.00113247 1.0656)
(0.00104454 0.00120984 1.09817)
(0.00087989 0.00136102 1.10804)
(0.000664951 0.0014885 1.11517)
(0.000414545 0.00157892 1.1198)
(0.000140895 0.00162601 1.12207)
(-0.000140911 0.00162601 1.12207)
(-0.000414561 0.00157892 1.1198)
(-0.000664965 0.00148849 1.11517)
(-0.000879903 0.00136102 1.10804)
(-0.00104456 0.00120983 1.09817)
(0.00107349 0.00123389 1.11978)
(0.000895986 0.00134374 1.12758)
(0.000670958 0.00144149 1.13306)
(0.000415833 0.00151033 1.13654)
(0.000140893 0.00154595 1.13823)
(-0.000140911 0.00154595 1.13823)
(-0.00041585 0.00151032 1.13654)
(-0.000670973 0.00144149 1.13306)
(-0.000895999 0.00134374 1.12758)
(-0.0010735 0.00123388 1.11978)
(5.24957e-07 3.47884e-07 0.143146)
(5.99789e-07 6.09577e-07 0.150223)
(3.93067e-07 9.87134e-07 0.155995)
(2.87705e-07 1.25194e-06 0.160065)
(9.799e-08 1.4052e-06 0.162167)
(-9.96423e-08 1.40509e-06 0.162167)
(-2.89324e-07 1.25161e-06 0.160065)
(-3.94683e-07 9.86505e-07 0.155995)
(-6.012e-07 6.088e-07 0.150223)
(-5.26334e-07 3.46791e-07 0.143146)
(2.40237e-05 2.75763e-05 0.386107)
(2.15678e-05 3.44177e-05 0.402492)
(1.67911e-05 4.08311e-05 0.415748)
(1.08211e-05 4.55812e-05 0.425035)
(3.72887e-06 4.81578e-05 0.42981)
(-3.73233e-06 4.81576e-05 0.42981)
(-1.08245e-05 4.55803e-05 0.425035)
(-1.67945e-05 4.08295e-05 0.415748)
(-2.15709e-05 3.44158e-05 0.402492)
(-2.40268e-05 2.7574e-05 0.386107)
(6.96554e-05 8.07721e-05 0.58396)
(6.19783e-05 9.94803e-05 0.605285)
(4.84851e-05 0.000116617 0.622338)
(3.11295e-05 0.000129358 0.634193)
(1.07266e-05 0.000136232 0.640258)
(-1.07318e-05 0.000136232 0.640258)
(-3.11347e-05 0.000129357 0.634193)
(-4.84903e-05 0.000116615 0.622338)
(-6.1983e-05 9.94773e-05 0.605285)
(-6.96603e-05 8.07686e-05 0.58396)
(0.000133058 0.000154682 0.740648)
(0.000117674 0.000188329 0.763401)
(9.19851e-05 0.000218883 0.781338)
(5.88876e-05 0.00024155 0.793691)
(2.02734e-05 0.000253736 0.799975)
(-2.02801e-05 0.000253735 0.799975)
(-5.88942e-05 0.000241548 0.793691)
(-9.19918e-05 0.00021888 0.781338)
(-0.00011768 0.000188325 0.763401)
(-0.000133065 0.000154678 0.740648)
(0.000205611 0.000238915 0.861346)
(0.00018073 0.000287413 0.883071)
(0.000140863 0.000331182 0.89991)
(8.98946e-05 0.000363523 0.911383)
(3.09069e-05 0.000380845 0.917182)
(-3.09146e-05 0.000380845 0.917182)
(-8.99023e-05 0.000363521 0.911383)
(-0.000140871 0.000331179 0.89991)
(-0.000180737 0.000287409 0.883071)
(-0.000205618 0.000238911 0.861346)
(0.000278789 0.000323243 0.951938)
(0.000243429 0.000383742 0.971152)
(0.000188949 0.000437982 0.985769)
(0.000120152 0.00047786 0.995613)
(4.12408e-05 0.000499137 1.00055)
(-4.12497e-05 0.000499136 1.00055)
(-0.000120161 0.000477858 0.995613)
(-0.000188957 0.000437978 0.985769)
(-0.000243436 0.000383738 0.971152)
(-0.000278797 0.000323239 0.951938)
(0.000344859 0.000398454 1.0182)
(0.000298934 0.000465992 1.03424)
(0.000230889 0.000526052 1.04621)
(0.000146243 0.000569967 1.05418)
(5.00989e-05 0.000593298 1.05815)
(-5.01089e-05 0.000593297 1.05815)
(-0.000146253 0.000569965 1.05418)
(-0.000230898 0.000526049 1.04621)
(-0.000298942 0.000465988 1.03424)
(-0.000344868 0.00039845 1.0182)
(0.000397386 0.000456823 1.06545)
(0.000341797 0.000525161 1.07826)
(0.000262543 0.000585291 1.08766)
(0.000165571 0.000628981 1.09384)
(5.65954e-05 0.000652086 1.0969)
(-5.66062e-05 0.000652086 1.0969)
(-0.000165582 0.00062898 1.09384)
(-0.000262554 0.000585288 1.08766)
(-0.000341807 0.000525158 1.07826)
(-0.000397396 0.000456818 1.06545)
(0.000432315 0.000493137 1.09821)
(0.000368732 0.000555745 1.10816)
(0.000281381 0.000609711 1.11537)
(0.000176528 0.000648652 1.12005)
(6.01785e-05 0.000669113 1.12235)
(-6.01894e-05 0.000669113 1.12235)
(-0.000176539 0.000648651 1.12005)
(-0.000281393 0.00060971 1.11537)
(-0.000368743 0.000555742 1.10816)
(-0.000432325 0.000493134 1.09821)
(0.000448659 0.000509276 1.12003)
(0.000378433 0.000555482 1.12792)
(0.000285763 0.000596639 1.13349)
(0.000178048 0.000625912 1.13703)
(6.04775e-05 0.000641155 1.13874)
(-6.04883e-05 0.000641155 1.13874)