/*--------------------------------*- C++ -*----------------------------------*\
| =========                 |                                                 |
| \\      /  F ield         | OpenFOAM: The Open Source CFD Toolbox           |
|  \\    /   O peration     | Version:  2106                                  |
|   \\  /    A nd           | Website:  www.openfoam.com                      |
|    \\/     M anipulation  |                                                 |
\*---------------------------------------------------------------------------*/
FoamFile
{
    version     2.0;
    format      ascii;
    arch        "LSB;label=32;scalar=64";
    class       volVectorField;
    location    "0.14";
    object      U;
}
// * * * * * * * * * * * * * * * * * * * * * * * * * * * * * * * * * * * * * //

dimensions      [0 1 -1 0 0 0 0];

internalField   nonuniform List<vector> 
10000
(
(0.0514993 0.0606241 0.28966)
(0.0439363 0.0688644 0.301723)
(0.0328344 0.0763361 0.311205)
(0.0203718 0.0815581 0.317746)
(0.00690476 0.0842603 0.321068)
(-0.00690476 0.0842603 0.321068)
(-0.0203719 0.0815581 0.317746)
(-0.0328344 0.0763361 0.311205)
(-0.0439363 0.0688644 0.301723)
(-0.0514993 0.0606241 0.28966)
(0.138362 0.164122 0.606495)
(0.116686 0.18551 0.622439)
(0.0870368 0.204345 0.634331)
(0.053807 0.21737 0.642349)
(0.0182064 0.224081 0.646352)
(-0.0182064 0.224081 0.646352)
(-0.053807 0.21737 0.642349)
(-0.0870368 0.204345 0.634331)
(-0.116686 0.18551 0.622439)
(-0.138362 0.164122 0.606495)
(0.174597 0.207428 0.765966)
(0.145438 0.231225 0.778396)
(0.10765 0.252049 0.787065)
(0.066162 0.266232 0.792751)
(0.0223215 0.273479 0.795529)
(-0.0223215 0.273479 0.795529)
(-0.066162 0.266232 0.792751)
(-0.10765 0.252049 0.787065)
(-0.145438 0.231225 0.778396)
(-0.174597 0.207428 0.765966)
(0.180956 0.214791 0.844556)
(0.149074 0.235932 0.852365)
(0.1095 0.25452 0.857228)
(0.0669179 0.266978 0.860286)
(0.0225134 0.273286 0.861726)
(-0.0225134 0.273286 0.861726)
(-0.0669179 0.266978 0.860286)
(-0.1095 0.25452 0.857228)
(-0.149074 0.235932 0.852365)
(-0.180956 0.214791 0.844556)
(0.173862 0.20617 0.881168)
(0.141864 0.223297 0.885109)
(0.103499 0.238539 0.88696)
(0.0629277 0.248608 0.887991)
(0.0211185 0.253658 0.888421)
(-0.0211185 0.253658 0.888421)
(-0.0629278 0.248608 0.887991)
(-0.103499 0.238539 0.88696)
(-0.141864 0.223297 0.885109)
(-0.173862 0.20617 0.881168)
(0.16032 0.189931 0.89557)
(0.129661 0.202884 0.896704)
(0.0940153 0.21463 0.896488)
(0.0568902 0.222296 0.89616)
(0.0190487 0.226102 0.895927)
(-0.0190488 0.226102 0.895927)
(-0.0568903 0.222296 0.89616)
(-0.0940154 0.21463 0.896488)
(-0.129661 0.202884 0.896704)
(-0.16032 0.189931 0.89557)
(0.143719 0.169982 0.898471)
(0.115223 0.178994 0.897754)
(0.0830683 0.187406 0.896275)
(0.0500416 0.192853 0.895137)
(0.0167196 0.195533 0.894518)
(-0.0167197 0.195533 0.894518)
(-0.0500417 0.192853 0.895137)
(-0.0830684 0.187406 0.896275)
(-0.115223 0.178994 0.897754)
(-0.143719 0.169982 0.898471)
(0.126083 0.148695 0.895824)
(0.100205 0.154193 0.894004)
(0.0718673 0.159582 0.891864)
(0.0431206 0.16308 0.890319)
(0.0143794 0.164795 0.889515)
(-0.0143794 0.164795 0.889515)
(-0.0431207 0.16308 0.890319)
(-0.0718674 0.159582 0.891864)
(-0.100205 0.154193 0.894004)
(-0.126083 0.148695 0.895824)
(0.108642 0.127525 0.890913)
(0.08567 0.129968 0.888494)
(0.0611606 0.132715 0.886102)
(0.0365714 0.134579 0.884426)
(0.012175 0.135506 0.883572)
(-0.0121751 0.135506 0.883572)
(-0.0365716 0.134579 0.884426)
(-0.0611607 0.132715 0.886102)
(-0.08567 0.129967 0.888494)
(-0.108642 0.127525 0.890913)
(0.0922737 0.107353 0.885566)
(0.0724699 0.106237 0.882839)
(0.0513901 0.107073 0.880425)
(0.030621 0.107755 0.878787)
(0.0101778 0.108112 0.877963)
(-0.010178 0.108112 0.877963)
(-0.0306212 0.107755 0.878787)
(-0.0513902 0.107073 0.880425)
(-0.07247 0.106236 0.882839)
(-0.0922738 0.107353 0.885566)
(0.00913663 0.0117157 0.243051)
(0.0076433 0.0144003 0.254213)
(0.00577248 0.0165334 0.263361)
(0.00364851 0.0179935 0.269732)
(0.00124815 0.0187529 0.272993)
(-0.00124815 0.0187529 0.272993)
(-0.00364851 0.0179935 0.269732)
(-0.00577249 0.0165334 0.263361)
(-0.00764332 0.0144003 0.254213)
(-0.00913664 0.0117157 0.243051)
(0.0404568 0.0492581 0.567172)
(0.0345263 0.059089 0.586384)
(0.0263334 0.0674164 0.601805)
(0.0166066 0.0732728 0.612402)
(0.00567698 0.0763345 0.617777)
(-0.005677 0.0763345 0.617777)
(-0.0166067 0.0732728 0.612402)
(-0.0263334 0.0674164 0.601805)
(-0.0345263 0.059089 0.586384)
(-0.0404569 0.0492581 0.567172)
(0.069262 0.0832722 0.77935)
(0.0586446 0.0979651 0.79903)
(0.0444073 0.110425 0.814452)
(0.0278035 0.119121 0.824892)
(0.00947004 0.123635 0.830133)
(-0.00947006 0.123635 0.830133)
(-0.0278035 0.119121 0.824892)
(-0.0444074 0.110425 0.814452)
(-0.0586446 0.0979651 0.79903)
(-0.0692621 0.0832721 0.77935)
(0.0905187 0.108076 0.914935)
(0.0758485 0.124896 0.931513)
(0.0569501 0.139078 0.944112)
(0.0354047 0.148862 0.952482)
(0.012016 0.153899 0.956631)
(-0.012016 0.153899 0.956631)
(-0.0354047 0.148862 0.952482)
(-0.0569502 0.139078 0.944112)
(-0.0758485 0.124896 0.931513)
(-0.0905188 0.108076 0.914935)
(0.103237 0.122629 0.997973)
(0.0856076 0.139378 1.01009)
(0.063754 0.153389 1.01891)
(0.039376 0.162942 1.02461)
(0.0133199 0.167818 1.02739)
(-0.01332 0.167818 1.02739)
(-0.0393761 0.162942 1.02461)
(-0.0637541 0.153389 1.01891)
(-0.0856077 0.139378 1.01009)
(-0.103238 0.122629 0.997973)
(0.108549 0.12836 1.04529)
(0.0891005 0.143563 1.05282)
(0.065845 0.156156 1.05791)
(0.0404218 0.164646 1.06104)
(0.0136323 0.168943 1.06251)
(-0.0136323 0.168943 1.06251)
(-0.0404219 0.164646 1.06104)
(-0.0658451 0.156156 1.05791)
(-0.0891005 0.143562 1.05282)
(-0.108549 0.12836 1.04529)
(0.108022 0.127179 1.06894)
(0.0877843 0.139954 1.07244)
(0.0644039 0.150395 1.07437)
(0.0393173 0.157362 1.07536)
(0.0132229 0.160862 1.07575)
(-0.013223 0.160862 1.07575)
(-0.0393174 0.157362 1.07536)
(-0.064404 0.150395 1.07437)
(-0.0877844 0.139954 1.07244)
(-0.108022 0.127179 1.06894)
(0.103164 0.12089 1.07755)
(0.0830146 0.13078 1.07786)
(0.0605024 0.138706 1.0774)
(0.0367531 0.143957 1.0768)
(0.0123302 0.146582 1.07641)
(-0.0123303 0.146582 1.07641)
(-0.0367532 0.143957 1.0768)
(-0.0605025 0.138706 1.0774)
(-0.0830148 0.13078 1.07786)
(-0.103164 0.12089 1.07755)
(0.0952733 0.110982 1.07717)
(0.0759984 0.117793 1.07518)
(0.0550645 0.123099 1.07309)
(0.0333077 0.126635 1.07146)
(0.0111507 0.128406 1.07056)
(-0.0111509 0.128406 1.07056)
(-0.0333079 0.126635 1.07146)
(-0.0550646 0.123099 1.07309)
(-0.0759985 0.117793 1.07518)
(-0.0952734 0.110982 1.07717)
(0.0855965 0.099052 1.07209)
(0.0679217 0.101804 1.06851)
(0.0488628 0.104701 1.06545)
(0.0294309 0.106689 1.06323)
(0.00983338 0.107693 1.06206)
(-0.00983357 0.107693 1.06206)
(-0.0294311 0.106689 1.06323)
(-0.0488629 0.104701 1.06545)
(-0.0679218 0.101804 1.06851)
(-0.0855966 0.0990519 1.07209)
(0.000650883 0.000674479 0.161211)
(0.000719356 0.000869102 0.169573)
(0.000579878 0.0011411 0.176548)
(0.00039418 0.0013517 0.181489)
(0.000138702 0.00147022 0.184046)
(-0.000138707 0.00147022 0.184046)
(-0.000394188 0.00135169 0.181489)
(-0.000579886 0.0011411 0.176548)
(-0.000719366 0.000869097 0.169573)
(-0.000650894 0.00067447 0.161211)
(0.0113206 0.0130585 0.432972)
(0.0102686 0.0158697 0.451614)
(0.0080646 0.0185896 0.466915)
(0.00518597 0.0206088 0.477646)
(0.00178849 0.0216956 0.483163)
(-0.00178851 0.0216956 0.483163)
(-0.00518598 0.0206088 0.477646)
(-0.00806462 0.0185896 0.466915)
(-0.0102686 0.0158697 0.451614)
(-0.0113206 0.0130585 0.432972)
(0.0248536 0.0288847 0.648927)
(0.021996 0.0344619 0.67216)
(0.0170769 0.0396346 0.690883)
(0.0108658 0.0434122 0.703871)
(0.00372891 0.0454219 0.710502)
(-0.00372893 0.0454219 0.710502)
(-0.0108658 0.0434122 0.703871)
(-0.0170769 0.0396346 0.690883)
(-0.021996 0.0344619 0.67216)
(-0.0248536 0.0288847 0.648927)
(0.0384121 0.0447844 0.813054)
(0.0334177 0.0525317 0.836564)
(0.0256789 0.0595432 0.855108)
(0.0162042 0.0645854 0.867806)
(0.00553864 0.0672416 0.874237)
(-0.00553867 0.0672416 0.874237)
(-0.0162042 0.0645854 0.867806)
(-0.025679 0.0595432 0.855108)
(-0.0334178 0.0525316 0.836564)
(-0.0384122 0.0447844 0.813054)
(0.0493531 0.057567 0.932725)
(0.0423307 0.066427 0.953749)
(0.0322265 0.0743087 0.96991)
(0.0201909 0.0798997 0.980804)
(0.00687716 0.0828189 0.986267)
(-0.00687721 0.0828189 0.986267)
(-0.0201909 0.0798997 0.980804)
(-0.0322265 0.0743087 0.96991)
(-0.0423307 0.0664269 0.953749)
(-0.0493532 0.0575669 0.932725)
(0.0567318 0.0660808 1.01635)
(0.0480487 0.0750173 1.03345)
(0.0362685 0.0828539 1.04618)
(0.0225776 0.0883473 1.05459)
(0.00766583 0.0911921 1.05876)
(-0.0076659 0.0911921 1.05876)
(-0.0225777 0.0883473 1.05459)
(-0.0362686 0.0828539 1.04618)
(-0.0480488 0.0750173 1.03345)
(-0.0567319 0.0660808 1.01635)
(0.0605423 0.0703293 1.07201)
(0.0506798 0.0785146 1.08473)
(0.0379533 0.0855901 1.09384)
(0.0234883 0.0905007 1.09971)
(0.00795203 0.0930259 1.10257)
(-0.00795212 0.0930259 1.10257)
(-0.0234883 0.0905007 1.09971)
(-0.0379534 0.0855901 1.09384)
(-0.0506799 0.0785146 1.08473)
(-0.0605424 0.0703293 1.07201)
(0.0611795 0.070795 1.10686)
(0.0506497 0.0776352 1.11546)
(0.0376553 0.0834494 1.1213)
(0.0231801 0.0874559 1.12492)
(0.00782714 0.0895059 1.12664)
(-0.00782725 0.0895059 1.12664)
(-0.0231802 0.0874559 1.12492)
(-0.0376554 0.0834494 1.1213)
(-0.0506498 0.0776352 1.11546)
(-0.0611795 0.070795 1.10686)
(0.0592217 0.0681419 1.12688)
(0.0485384 0.0732501 1.13202)
(0.0358364 0.0774906 1.13521)
(0.0219507 0.0804133 1.13706)
(0.0073936 0.081907 1.13788)
(-0.00739373 0.081907 1.13788)
(-0.0219508 0.0804133 1.13706)
(-0.0358365 0.0774906 1.13521)
(-0.0485385 0.0732501 1.13202)
(-0.0592218 0.0681418 1.12688)
(0.0554156 0.0633917 1.13686)
(0.0450267 0.0659951 1.13937)
(0.0329437 0.0685585 1.14065)
(0.0200666 0.0703385 1.14122)
(0.00674095 0.0712476 1.14142)
(-0.00674109 0.0712476 1.14142)
(-0.0200667 0.0703385 1.14122)
(-0.0329438 0.0685585 1.14065)
(-0.0450268 0.0659951 1.13937)
(-0.0554157 0.0633917 1.13686)
(0.000527679 0.000710601 0.151511)
(0.000403084 0.00088925 0.158959)
(0.000271527 0.00101033 0.165043)
(0.000164162 0.00107908 0.169326)
(5.45745e-05 0.00111224 0.171537)
(-5.45802e-05 0.00111224 0.171537)
(-0.000164167 0.00107908 0.169326)
(-0.000271533 0.00101033 0.165043)
(-0.000403091 0.000889246 0.158959)
(-0.000527688 0.000710594 0.151511)
(0.00411258 0.00500131 0.41208)
(0.00352066 0.00614733 0.429617)
(0.00267664 0.00711609 0.443809)
(0.00169437 0.00779546 0.453734)
(0.000580076 0.00815264 0.458835)
(-0.000580089 0.00815264 0.458835)
(-0.00169438 0.00779545 0.453734)
(-0.00267665 0.00711608 0.443809)
(-0.00352068 0.00614732 0.429617)
(-0.0041126 0.0050013 0.41208)
(0.00948837 0.01135 0.626338)
(0.008179 0.0137411 0.649374)
(0.00626743 0.0158049 0.667773)
(0.00396615 0.0172736 0.680532)
(0.00135797 0.018047 0.687053)
(-0.001358 0.018047 0.687053)
(-0.00396618 0.0172736 0.680532)
(-0.00626745 0.0158049 0.667773)
(-0.00817903 0.0137411 0.649374)
(-0.00948841 0.01135 0.626338)
(0.0155203 0.0184384 0.796543)
(0.0133329 0.0219996 0.821189)
(0.0101994 0.0250805 0.840552)
(0.00643142 0.0272704 0.853836)
(0.00219824 0.0284195 0.860581)
(-0.00219827 0.0284195 0.860581)
(-0.00643146 0.0272704 0.853836)
(-0.0101995 0.0250804 0.840552)
(-0.013333 0.0219995 0.821189)
(-0.0155204 0.0184384 0.796543)
(0.0211034 0.0249547 0.927212)
(0.0180013 0.0293334 0.950636)
(0.0137022 0.0331033 0.968669)
(0.00859916 0.0357659 0.980881)
(0.00293221 0.0371554 0.987031)
(-0.00293225 0.0371554 0.987031)
(-0.0085992 0.0357659 0.980881)
(-0.0137022 0.0331033 0.968669)
(-0.0180013 0.0293334 0.950636)
(-0.0211035 0.0249547 0.927212)
(0.0255811 0.0301235 1.0242)
(0.021632 0.034864 1.04463)
(0.0163623 0.0389081 1.05998)
(0.0102153 0.0417412 1.07022)
(0.00347427 0.0432103 1.07532)
(-0.00347432 0.0432103 1.07532)
(-0.0102153 0.0417412 1.07022)
(-0.0163624 0.0389081 1.05998)
(-0.0216321 0.034864 1.04463)
(-0.0255811 0.0301234 1.0242)
(0.0286363 0.0335787 1.09362)
(0.0239869 0.0382307 1.11022)
(0.0180207 0.0421483 1.12235)
(0.0111915 0.0448693 1.1303)
(0.00379631 0.0462719 1.13421)
(-0.00379637 0.0462719 1.13421)
(-0.0111915 0.0448693 1.1303)
(-0.0180208 0.0421483 1.12235)
(-0.023987 0.0382307 1.11022)
(-0.0286364 0.0335787 1.09362)
(0.0301771 0.0352155 1.14138)
(0.0250305 0.0393859 1.15403)
(0.018678 0.042839 1.16299)
(0.011541 0.0452197 1.16873)
(0.00390497 0.046441 1.17153)
(-0.00390505 0.046441 1.17153)
(-0.011541 0.0452198 1.16873)
(-0.018678 0.042839 1.16299)
(-0.0250306 0.0393859 1.15403)
(-0.0301771 0.0352155 1.14138)
(0.0302797 0.0350986 1.17269)
(0.0248843 0.0384742 1.18179)
(0.0184464 0.0412045 1.18801)
(0.0113421 0.0430832 1.1919)
(0.0038282 0.0440444 1.19375)
(-0.00382828 0.0440444 1.19375)
(-0.0113422 0.0430832 1.1919)
(-0.0184465 0.0412045 1.18801)
(-0.0248844 0.0384742 1.18178)
(-0.0302798 0.0350986 1.17269)
(0.0292004 0.0336183 1.19187)
(0.0238021 0.0356555 1.19824)
(0.0174929 0.0374905 1.20237)
(0.0106973 0.0387567 1.20484)
(0.00360082 0.0394031 1.20597)
(-0.0036009 0.0394031 1.20597)
(-0.0106974 0.0387567 1.20484)
(-0.017493 0.0374905 1.20237)
(-0.0238022 0.0356555 1.19824)
(-0.0292004 0.0336183 1.19187)
(4.96783e-05 4.07185e-05 0.144916)
(5.8567e-05 5.74309e-05 0.152126)
(4.64291e-05 8.34721e-05 0.15802)
(3.26329e-05 0.000103718 0.162178)
(1.15025e-05 0.000115334 0.164325)
(-1.15067e-05 0.000115333 0.164325)
(-3.26376e-05 0.000103717 0.162178)
(-4.64344e-05 8.34699e-05 0.15802)
(-5.85731e-05 5.74274e-05 0.152126)
(-4.9685e-05 4.07131e-05 0.144916)
(0.00118908 0.00135413 0.396713)
(0.00108763 0.00167861 0.413935)
(0.000858703 0.00199524 0.427898)
(0.000556677 0.00223341 0.437689)
(0.000192584 0.00236304 0.442728)
(-0.000192593 0.00236304 0.442728)
(-0.000556688 0.00223341 0.437689)
(-0.000858715 0.00199523 0.427898)
(-0.00108765 0.0016786 0.413935)
(-0.0011891 0.00135412 0.396713)
(0.00316905 0.00366105 0.606609)
(0.00283779 0.00446761 0.629611)
(0.00222765 0.00522134 0.648046)
(0.00143123 0.00578251 0.660877)
(0.000493453 0.00608482 0.66745)
(-0.000493469 0.00608482 0.66745)
(-0.00143124 0.00578251 0.660877)
(-0.00222767 0.00522134 0.648046)
(-0.00283781 0.0044676 0.629611)
(-0.00316907 0.00366103 0.606609)
(0.00565787 0.00656717 0.776511)
(0.00500032 0.00789938 0.801651)
(0.00389952 0.00911885 0.821512)
(0.00248932 0.0100174 0.835208)
(0.000855786 0.0104977 0.842183)
(-0.000855809 0.0104977 0.842183)
(-0.00248934 0.0100174 0.835208)
(-0.00389955 0.00911884 0.821512)
(-0.00500035 0.00789937 0.801651)
(-0.0056579 0.00656715 0.776511)
(0.0082007 0.00952703 0.910036)
(0.00716692 0.0112932 0.934567)
(0.00555013 0.0128862 0.95361)
(0.00352238 0.0140481 0.966596)
(0.00120758 0.0146651 0.973165)
(-0.00120761 0.0146651 0.973165)
(-0.00352241 0.0140481 0.966596)
(-0.00555017 0.0128862 0.95361)
(-0.00716696 0.0112932 0.934567)
(-0.00820075 0.00952701 0.910036)
(0.0104566 0.0121326 1.01198)
(0.00904186 0.0141624 1.03408)
(0.0069517 0.0159689 1.05088)
(0.00438707 0.0172738 1.0622)
(0.00149991 0.0179621 1.06788)
(-0.00149994 0.0179621 1.06788)
(-0.00438711 0.0172738 1.0622)
(-0.00695175 0.0159689 1.05088)
(-0.00904191 0.0141624 1.03408)
(-0.0104566 0.0121326 1.01198)
(0.0122034 0.0141213 1.08751)
(0.0104427 0.0162139 1.1062)
(0.00797057 0.0180505 1.1201)
(0.00500251 0.0193652 1.12934)
(0.0017057 0.0200544 1.13393)
(-0.00170575 0.0200544 1.13393)
(-0.00500256 0.0193652 1.12934)
(-0.00797062 0.0180505 1.1201)
(-0.0104428 0.0162139 1.1062)
(-0.0122034 0.0141213 1.08751)
(0.0133203 0.0153496 1.14174)
(0.0112814 0.0173074 1.15673)
(0.00854928 0.0189982 1.16764)
(0.00533716 0.020199 1.17478)
(0.00181497 0.0208252 1.1783)
(-0.00181503 0.0208252 1.1783)
(-0.00533722 0.020199 1.17478)
(-0.00854934 0.0189982 1.16764)
(-0.0112815 0.0173074 1.15673)
(-0.0133204 0.0153496 1.14174)
(0.0137825 0.0157794 1.17927)
(0.0115571 0.017431 1.19083)
(0.00869367 0.0188237 1.19907)
(0.00539754 0.0198073 1.20437)
(0.00183038 0.0203178 1.20695)
(-0.00183044 0.0203178 1.20695)
(-0.0053976 0.0198073 1.20437)
(-0.00869373 0.0188237 1.19907)
(-0.0115572 0.0174309 1.19083)
(-0.0137825 0.0157794 1.17927)
(0.0136643 0.0155602 1.20401)
(0.0113365 0.0166348 1.21293)
(0.00844118 0.017605 1.21905)
(0.00520643 0.0182853 1.22289)
(0.00175978 0.0186361 1.22473)
(-0.00175984 0.0186361 1.22473)
(-0.00520649 0.0182853 1.22289)
(-0.00844123 0.017605 1.21905)
(-0.0113366 0.0166348 1.21293)
(-0.0136643 0.0155602 1.20401)
(5.90404e-05 8.1025e-05 0.143813)
(4.20147e-05 0.000102022 0.150925)
(2.55453e-05 0.00011447 0.156713)
(1.46122e-05 0.000120305 0.16079)
(4.65999e-06 0.0001228 0.162895)
(-4.66396e-06 0.0001228 0.162895)
(-1.46163e-05 0.000120305 0.16079)
(-2.55496e-05 0.000114468 0.156713)
(-4.20192e-05 0.000102019 0.150925)
(-5.90453e-05 8.1021e-05 0.143813)
(0.000523365 0.000638124 0.393626)
(0.000442437 0.000788146 0.410657)
(0.000331949 0.00091128 0.424417)
(0.000208821 0.000996213 0.434057)
(7.1212e-05 0.0010406 0.439015)
(-7.12205e-05 0.0010406 0.439015)
(-0.00020883 0.000996211 0.434057)
(-0.000331959 0.000911276 0.424417)
(-0.000442448 0.00078814 0.410657)
(-0.000523376 0.000638116 0.393626)
(0.00133511 0.00159685 0.602366)
(0.00115067 0.00195099 0.625221)
(0.000881151 0.00225445 0.64349)
(0.000558053 0.00247102 0.656197)
(0.00019111 0.00258541 0.662704)
(-0.000191124 0.00258541 0.662704)
(-0.000558068 0.00247101 0.656197)
(-0.000881167 0.00225444 0.64349)
(-0.00115069 0.00195098 0.625221)
(-0.00133512 0.00159684 0.602366)
(0.00237695 0.002821 0.772243)
(0.00205507 0.00340852 0.79741)
(0.00158047 0.00391862 0.817255)
(0.00100108 0.00428542 0.830938)
(0.00034293 0.00447936 0.837908)
(-0.000342949 0.00447935 0.837908)
(-0.0010011 0.00428542 0.830938)
(-0.0015805 0.00391862 0.817255)
(-0.00205509 0.00340851 0.79741)
(-0.00237697 0.00282099 0.772243)
(0.00349061 0.00412218 0.906851)
(0.00300958 0.0049197 0.931662)
(0.00231146 0.00561332 0.950908)
(0.00146062 0.00611151 0.964041)
(0.000499795 0.00637425 0.970688)
(-0.000499818 0.00637425 0.970688)
(-0.00146064 0.00611151 0.964041)
(-0.00231149 0.00561331 0.950908)
(-0.0030096 0.00491969 0.931662)
(-0.00349064 0.00412216 0.906851)
(0.00453795 0.0053362 1.01079)
(0.00389026 0.00628174 1.03344)
(0.00297612 0.00710035 1.05069)
(0.00187383 0.00768558 1.06232)
(0.000640053 0.00799295 1.06817)
(-0.000640082 0.00799295 1.06817)
(-0.00187386 0.00768558 1.06232)
(-0.00297615 0.00710035 1.05069)
(-0.00389029 0.00628173 1.03344)
(-0.00453799 0.00533619 1.01079)
(0.00540972 0.00633385 1.08894)
(0.00460316 0.00734261 1.10844)
(0.00350303 0.0082082 1.123)
(0.00219624 0.0088232 1.13269)
(0.000748596 0.00914471 1.13753)
(-0.00074863 0.00914471 1.13753)
(-0.00219627 0.0088232 1.13269)
(-0.00350307 0.0082082 1.123)
(-0.0046032 0.0073426 1.10844)
(-0.00540976 0.00633383 1.08894)
(0.00602878 0.00702265 1.14614)
(0.00508698 0.00800131 1.16215)
(0.00384859 0.00883061 1.17387)
(0.00240196 0.00941609 1.18159)
(0.000816848 0.00972078 1.1854)
(-0.000816886 0.00972078 1.1854)
(-0.002402 0.00941609 1.18159)
(-0.00384863 0.00883061 1.17387)
(-0.00508702 0.00800131 1.16215)
(-0.00602882 0.00702264 1.14614)
(0.00635709 0.00734981 1.18672)
(0.00531816 0.00820898 1.19944)
(0.00399779 0.00892283 1.20861)
(0.0024828 0.00942466 1.21456)
(0.000842202 0.00968464 1.21748)
(-0.000842242 0.00968465 1.21748)
(-0.00248284 0.00942466 1.21456)
(-0.00399783 0.00892283 1.20861)
(-0.00531819 0.00820898 1.19944)
(-0.00635713 0.0073498 1.18672)
(0.00640597 0.00735622 1.21429)
(0.00530901 0.00794929 1.22452)
(0.00395409 0.00847421 1.23165)
(0.00244095 0.00884114 1.23618)
(0.00082546 0.00903017 1.23836)
(-0.000825499 0.00903018 1.23836)
(-0.00244099 0.00884114 1.23618)
(-0.00395413 0.00847422 1.23165)
(-0.00530904 0.0079493 1.22452)
(-0.006406 0.00735622 1.21429)
(4.02064e-06 2.38246e-06 0.14296)
(4.93527e-06 3.96497e-06 0.150042)
(3.62599e-06 6.56033e-06 0.155806)
(2.66645e-06 8.5136e-06 0.159868)
(9.34871e-07 9.65566e-06 0.161965)
(-9.38117e-07 9.65543e-06 0.161965)
(-2.66978e-06 8.51292e-06 0.159868)
(-3.6294e-06 6.5591e-06 0.155806)
(-4.93869e-06 3.96304e-06 0.150042)
(-4.02417e-06 2.37966e-06 0.14296)
(0.000160547 0.000182969 0.39145)
(0.00014539 0.000227925 0.408421)
(0.000113985 0.000270774 0.422135)
(7.37658e-05 0.000302841 0.431745)
(2.54804e-05 0.0003203 0.43669)
(-2.54873e-05 0.0003203 0.43669)
(-7.3773e-05 0.00030284 0.431745)
(-0.000113992 0.000270772 0.422135)
(-0.000145397 0.000227921 0.408421)
(-0.000160555 0.000182963 0.39145)
(0.000461821 0.000533752 0.599323)
(0.000412527 0.000656241 0.622133)
(0.000323684 0.000769388 0.64037)
(0.00020818 0.000853848 0.653062)
(7.1803e-05 0.00089948 0.659563)
(-7.18141e-05 0.000899479 0.659563)
(-0.000208191 0.000853846 0.653062)
(-0.000323696 0.000769384 0.64037)
(-0.000412539 0.000656234 0.622133)
(-0.000461833 0.000533742 0.599323)
(0.000874163 0.00101433 0.768847)
(0.000774312 0.00123228 0.794029)
(0.000605882 0.001431 0.813899)
(0.000388035 0.00157852 0.827609)
(0.000133619 0.00165782 0.834596)
(-0.000133634 0.00165782 0.834596)
(-0.000388051 0.00157852 0.827609)
(-0.000605898 0.00143099 0.813899)
(-0.000774329 0.00123227 0.794029)
(-0.00087418 0.00101431 0.768847)
(0.001336 0.00155066 0.903604)
(0.00117421 0.00186021 0.928527)
(0.000914808 0.00213978 0.947883)
(0.000583461 0.00234599 0.961106)
(0.000200538 0.00245627 0.967803)
(-0.000200556 0.00245627 0.967803)
(-0.00058348 0.00234599 0.961106)
(-0.000914828 0.00213978 0.947883)
(-0.00117423 0.0018602 0.928527)
(-0.00133602 0.00155064 0.903605)
(0.00178929 0.00207325 1.00813)
(0.00155999 0.00245285 1.031)
(0.00120892 0.00279245 1.04846)
(0.000767677 0.00304117 1.06025)
(0.000263303 0.00317353 1.06619)
(-0.000263323 0.00317353 1.06619)
(-0.000767698 0.00304117 1.06025)
(-0.00120894 0.00279244 1.04846)
(-0.00156001 0.00245284 1.031)
(-0.00178932 0.00207324 1.00813)
(0.00218475 0.00252359 1.0872)
(0.0018886 0.00293967 1.10704)
(0.00145495 0.00330788 1.1219)
(0.000919652 0.00357563 1.13182)
(0.000314712 0.00371738 1.13678)
(-0.000314736 0.00371738 1.13678)
(-0.000919677 0.00357563 1.13182)
(-0.00145497 0.00330788 1.1219)
(-0.00188863 0.00293966 1.10704)
(-0.00218477 0.00252358 1.0872)
(0.00248471 0.00285669 1.14554)
(0.00212891 0.00326972 1.16199)
(0.00162976 0.00363042 1.1741)
(0.00102517 0.00389077 1.1821)
(0.000349966 0.00402788 1.18606)
(-0.000349992 0.00402788 1.18606)
(-0.0010252 0.00389076 1.1821)
(-0.00162979 0.00363042 1.1741)
(-0.00212894 0.00326971 1.16199)
(-0.00248474 0.00285668 1.14554)
(0.00266828 0.00304562 1.18737)
(0.00226526 0.00341625 1.20061)
(0.00172185 0.00373272 1.21022)
(0.00107717 0.00395945 1.2165)
(0.00036668 0.00407812 1.21958)
(-0.000366708 0.00407811 1.21958)
(-0.0010772 0.00395945 1.21649)
(-0.00172188 0.00373272 1.21022)
(-0.00226529 0.00341625 1.20061)
(-0.00266831 0.00304561 1.18737)
(0.00273477 0.00310671 1.21617)
(0.00229546 0.00337191 1.22699)
(0.00172638 0.00360735 1.23461)
(0.0010725 0.00377387 1.23948)
(0.000363787 0.00386027 1.24184)
(-0.000363815 0.00386027 1.24184)
(-0.00107253 0.00377387 1.23948)
(-0.00172641 0.00360735 1.23461)
(-0.00229548 0.00337191 1.22699)
(-0.0027348 0.00310671 1.21617)
(8.35885e-06 1.19283e-05 0.142802)
(5.45543e-06 1.50983e-05 0.14987)
(2.95769e-06 1.67228e-05 0.15562)
(1.56669e-06 1.73299e-05 0.159671)
(4.69021e-07 1.75384e-05 0.161762)
(-4.71589e-07 1.75382e-05 0.161762)
(-1.56925e-06 1.73294e-05 0.159671)
(-2.96033e-06 1.67219e-05 0.15562)
(-5.45803e-06 1.50968e-05 0.14987)
(-8.3613e-06 1.19262e-05 0.142802)
(7.96039e-05 9.78182e-05 0.390967)
(6.62787e-05 0.000121042 0.407907)
(4.91171e-05 0.000139449 0.421588)
(3.06889e-05 0.000151928 0.431173)
(1.04222e-05 0.000158392 0.436104)
(-1.04275e-05 0.000158391 0.436104)
(-3.06942e-05 0.000151927 0.431173)
(-4.91227e-05 0.000139447 0.421588)
(-6.62844e-05 0.000121039 0.407907)
(-7.96091e-05 9.78138e-05 0.390967)
(0.000210623 0.000252628 0.598607)
(0.000180568 0.000309757 0.621385)
(0.000137758 0.00035798 0.639588)
(8.709e-05 0.000392265 0.652254)
(2.97907e-05 0.000410355 0.658742)
(-2.97991e-05 0.000410355 0.658742)
(-8.70985e-05 0.000392264 0.652254)
(-0.000137767 0.000357977 0.639588)
(-0.000180577 0.000309752 0.621385)
(-0.000210632 0.000252621 0.598607)
(0.000387569 0.000460358 0.768053)
(0.000334934 0.000559256 0.793224)
(0.000257653 0.00064462 0.81308)
(0.000163316 0.000706137 0.826779)
(5.59618e-05 0.000738736 0.83376)
(-5.59728e-05 0.000738735 0.83376)
(-0.000163327 0.000706135 0.826779)
(-0.000257665 0.000644616 0.81308)
(-0.000334946 0.00055925 0.793224)
(-0.000387581 0.000460349 0.768053)
(0.000588093 0.000694379 0.902915)
(0.000508453 0.000834616 0.927868)
(0.000391632 0.000956534 0.947245)
(0.000248082 0.00104465 0.960482)
(8.49937e-05 0.00109133 0.967188)
(-8.50066e-05 0.00109133 0.967188)
(-0.000248095 0.00104465 0.960482)
(-0.000391646 0.000956529 0.947245)
(-0.000508468 0.000834609 0.927868)
(-0.000588108 0.00069437 0.902915)
(0.000789446 0.000927609 1.00772)
(0.000680262 0.00110124 1.03068)
(0.000522901 0.00125211 1.0482)
(0.000330468 0.00136095 1.06005)
(0.000113095 0.00141846 1.06601)
(-0.00011311 0.00141846 1.06601)
(-0.000330483 0.00136095 1.06005)
(-0.000522917 0.0012521 1.0482)
(-0.000680279 0.00110123 1.03068)
(-0.000789462 0.000927599 1.00772)
(0.000970382 0.00113483 1.08723)
(0.00083148 0.00132805 1.10721)
(0.000636673 0.00149501 1.12218)
(0.000401042 0.00161497 1.13219)
(0.000137023 0.00167811 1.13719)
(-0.000137039 0.00167811 1.13719)
(-0.000401059 0.00161497 1.13219)
(-0.000636691 0.00149501 1.12218)
(-0.000831499 0.00132804 1.10721)
(-0.0009704 0.00113482 1.08723)
(0.00111289 0.00129433 1.14612)
(0.000946926 0.00148971 1.16276)
(0.000721519 0.00165694 1.17503)
(0.000452698 0.00177644 1.18315)
(0.000154361 0.00183908 1.18717)
(-0.00015438 0.00183908 1.18717)
(-0.000452716 0.00177644 1.18315)
(-0.000721538 0.00165694 1.17503)
(-0.000946945 0.0014897 1.16276)
(-0.00111291 0.00129432 1.14612)
(0.00120507 0.00139033 1.18855)
(0.00101742 0.00156938 1.20204)
(0.000770622 0.00171991 1.21185)
(0.000481204 0.00182691 1.21827)
(0.000163676 0.0018827 1.22142)
(-0.000163696 0.0018827 1.22142)
(-0.000481224 0.00182691 1.21827)
(-0.000770641 0.0017199 1.21185)
(-0.00101744 0.00156937 1.20204)
(-0.00120509 0.00139032 1.18855)
(0.00124396 0.00142616 1.21797)
(0.00104003 0.00155763 1.22908)
(0.000780307 0.00167336 1.23693)
(0.000484236 0.00175485 1.24196)
(0.000164172 0.00179703 1.24441)
(-0.000164195 0.00179703 1.24441)
(-0.000484258 0.00175485 1.24196)
(-0.000780328 0.00167336 1.23693)
(-0.00104005 0.00155762 1.22908)
(-0.00124398 0.00142616 1.21796)
(3.15162e-07 1.35851e-07 0.14267)
(3.40246e-07 3.6501e-07 0.149734)
(1.61669e-07 6.70538e-07 0.155479)
(1.37135e-07 8.70745e-07 0.159528)
(4.45856e-08 9.88219e-07 0.161618)
(-4.6598e-08 9.88083e-07 0.161618)
(-1.39114e-07 8.70315e-07 0.159528)
(-1.63607e-07 6.69795e-07 0.155479)
(-3.4196e-07 3.64011e-07 0.149734)
(-3.16798e-07 1.3453e-07 0.14267)
(2.50609e-05 2.88343e-05 0.39062)
(2.23253e-05 3.60864e-05 0.407549)
(1.73237e-05 4.27723e-05 0.421221)
(1.11574e-05 4.77104e-05 0.430801)
(3.84209e-06 5.03875e-05 0.435729)
(-3.84623e-06 5.03871e-05 0.435729)
(-1.11615e-05 4.77094e-05 0.430801)
(-1.73277e-05 4.27705e-05 0.421221)
(-2.2329e-05 3.60841e-05 0.407549)
(-2.50645e-05 2.88316e-05 0.39062)
(7.47192e-05 8.66537e-05 0.598105)
(6.63074e-05 0.000107028 0.620872)
(5.18434e-05 0.000125549 0.639068)
(3.32929e-05 0.000139326 0.651729)
(1.14719e-05 0.000146762 0.658214)
(-1.14784e-05 0.000146761 0.658214)
(-3.32993e-05 0.000139325 0.651729)
(-5.18498e-05 0.000125546 0.639068)
(-6.63133e-05 0.000107024 0.620872)
(-7.4725e-05 8.66495e-05 0.598105)
(0.000145148 0.000168589 0.76747)
(0.000128291 0.000205922 0.792639)
(0.000100343 0.000239674 0.812494)
(6.42844e-05 0.000264755 0.826193)
(2.2138e-05 0.00027825 0.833175)
(-2.21465e-05 0.00027825 0.833175)
(-6.42929e-05 0.000264753 0.826193)
(-0.000100351 0.00023967 0.812494)
(-0.000128299 0.000205918 0.792639)
(-0.000145156 0.000168584 0.76747)
(0.000227216 0.000263646 0.902332)
(0.000199819 0.000318289 0.927297)
(0.000155929 0.000367445 0.946686)
(9.96126e-05 0.000403843 0.959935)
(3.42642e-05 0.000423362 0.966647)
(-3.42742e-05 0.000423361 0.966647)
(-9.96226e-05 0.000403841 0.959935)
(-0.000155939 0.000367441 0.946686)
(-0.000199828 0.000318285 0.927297)
(-0.000227225 0.000263641 0.902332)
(0.000311398 0.000360422 1.00721)
(0.000272201 0.000429501 1.03021)
(0.000211608 0.000491247 1.04776)
(0.000134727 0.000536746 1.05963)
(4.62698e-05 0.000561052 1.0656)
(-4.62814e-05 0.000561051 1.0656)
(-0.000134738 0.000536744 1.05963)
(-0.000211619 0.000491243 1.04776)
(-0.000272211 0.000429496 1.03021)
(-0.000311408 0.000360417 1.00721)
(0.000388684 0.000448222 1.08687)
(0.000337403 0.000526264 1.1069)
(0.000261042 0.00059544 1.12193)
(0.00016556 0.000646119 1.13197)
(5.67513e-05 0.000673076 1.13699)
(-5.67642e-05 0.000673075 1.13699)
(-0.000165573 0.000646117 1.13197)
(-0.000261055 0.000595437 1.12193)
(-0.000337414 0.000526259 1.1069)
(-0.000388696 0.000448217 1.08687)
(0.000451317 0.000517769 1.14595)
(0.000388776 0.000597621 1.16267)
(0.000299131 0.000667615 1.17501)
(0.00018889 0.000718536 1.18318)
(6.46051e-05 0.000745488 1.18723)
(-6.46191e-05 0.000745487 1.18723)
(-0.000188904 0.000718534 1.18318)
(-0.000299145 0.000667612 1.17501)
(-0.000388789 0.000597617 1.16267)
(-0.000451329 0.000517763 1.14595)
(0.000494151 0.00056255 1.18861)
(0.000422066 0.000636551 1.20219)
(0.000322564 0.000699996 1.21209)
(0.000202598 0.00074577 1.21857)
(6.91028e-05 0.000769829 1.22176)
(-6.91172e-05 0.000769829 1.22176)
(-0.000202613 0.000745769 1.21857)
(-0.000322579 0.000699994 1.21209)
(-0.000422081 0.000636547 1.20219)
(-0.000494165 0.000562546 1.18861)
(0.000515447 0.000584549 1.21826)
(0.000435169 0.000639894 1.22949)
(0.000329022 0.000688629 1.23744)
(0.000205189 0.000723244 1.24255)
(6.97273e-05 0.000741258 1.24503)
(-6.97419e-05 0.000741258 1.24503)
(-0.000205204 0.000723243 1.24255)
(-0.000329038 0.000688627 1.23744)
(-0.000435184 0.000639893 1.22949)
(-0.000515462 0.000584547 1.21826)
(1.24979e-06 1.87474e-06 0.142645)
(7.23223e-07 2.39117e-06 0.149706)