/*--------------------------------*- C++ -*----------------------------------*\
| =========                 |                                                 |
| \\      /  F ield         | OpenFOAM: The Open Source CFD Toolbox           |
|  \\    /   O peration     | Version:  2106                                  |
|   \\  /    A nd           | Website:  www.openfoam.com                      |
|    \\/     M anipulation  |                                                 |
\*---------------------------------------------------------------------------*/
FoamFile
{
    version     2.0;
    format      ascii;
    arch        "LSB;label=32;scalar=64";
    class       volVectorField;
    location    "0.34";
    object      U;
}
// * * * * * * * * * * * * * * * * * * * * * * * * * * * * * * * * * * * * * //

dimensions      [0 1 -1 0 0 0 0];

internalField   nonuniform List<vector> 
10000
(
(0.062112 0.0731863 0.343097)
(0.0529738 0.0832261 0.357487)
(0.0395634 0.0923057 0.368782)
(0.0245433 0.0986389 0.376582)
(0.00831763 0.101913 0.380546)
(-0.00831765 0.101913 0.380546)
(-0.0245433 0.0986389 0.376582)
(-0.0395634 0.0923057 0.368782)
(-0.0529738 0.0832261 0.357487)
(-0.062112 0.0731863 0.343097)
(0.17044 0.202214 0.723332)
(0.143854 0.229142 0.742831)
(0.107384 0.252827 0.757362)
(0.0664317 0.269219 0.767184)
(0.0224858 0.277672 0.772094)
(-0.0224858 0.277672 0.772094)
(-0.0664317 0.269219 0.767184)
(-0.107384 0.252827 0.757362)
(-0.143854 0.229142 0.742831)
(-0.17044 0.202214 0.723332)
(0.219955 0.261202 0.917811)
(0.183537 0.29239 0.933491)
(0.136109 0.319624 0.944454)
(0.0837754 0.338243 0.951687)
(0.0282848 0.347779 0.955234)
(-0.0282849 0.347779 0.955234)
(-0.0837754 0.338243 0.951687)
(-0.136109 0.319624 0.944454)
(-0.183538 0.29239 0.933491)
(-0.219955 0.261202 0.917811)
(0.233993 0.277446 1.01607)
(0.193294 0.306625 1.02644)
(0.142426 0.332154 1.03303)
(0.0872429 0.3494 1.03723)
(0.0293862 0.358173 1.03923)
(-0.0293863 0.358173 1.03923)
(-0.087243 0.3494 1.03723)
(-0.142426 0.332154 1.03303)
(-0.193294 0.306625 1.02644)
(-0.233994 0.277446 1.01607)
(0.231147 0.273609 1.06387)
(0.18932 0.298758 1.06971)
(0.138725 0.3209 1.07275)
(0.0846177 0.335714 1.07458)
(0.028444 0.343199 1.07539)
(-0.0284441 0.343199 1.07539)
(-0.0846178 0.335714 1.07458)
(-0.138725 0.3209 1.07275)
(-0.18932 0.298758 1.06971)
(-0.231147 0.273609 1.06387)
(0.219341 0.259189 1.08455)
(0.178232 0.279644 1.08701)
(0.129942 0.297809 1.08759)
(0.0789495 0.309879 1.08778)
(0.0264888 0.315937 1.08779)
(-0.026489 0.315937 1.08779)
(-0.0789496 0.309879 1.08778)
(-0.129942 0.297809 1.08759)
(-0.178233 0.279644 1.08701)
(-0.219341 0.259188 1.08455)
(0.202367 0.238548 1.09083)
(0.163137 0.254137 1.09099)
(0.118365 0.268135 1.08999)
(0.0716469 0.277406 1.08916)
(0.0239955 0.282036 1.0887)
(-0.0239956 0.282036 1.0887)
(-0.071647 0.277406 1.08916)
(-0.118366 0.268135 1.08999)
(-0.163137 0.254137 1.09099)
(-0.202367 0.238548 1.09083)
(0.1826 0.214468 1.08985)
(0.146016 0.225308 1.08855)
(0.105465 0.235194 1.08665)
(0.0636167 0.241768 1.08526)
(0.0212701 0.245048 1.08454)
(-0.0212703 0.245048 1.08454)
(-0.0636169 0.241768 1.08526)
(-0.105466 0.235194 1.08665)
(-0.146016 0.225308 1.08855)
(-0.1826 0.214468 1.08985)
(0.161602 0.188775 1.08559)
(0.128264 0.195126 1.08339)
(0.0922481 0.201098 1.08107)
(0.0554623 0.205192 1.07944)
(0.0185141 0.207254 1.07861)
(-0.0185144 0.207254 1.07861)
(-0.0554626 0.205192 1.07944)
(-0.0922483 0.201098 1.08107)
(-0.128264 0.195126 1.08339)
(-0.161602 0.188775 1.08559)
(0.140547 0.163064 1.08028)
(0.111091 0.163605 1.0776)
(0.079339 0.166368 1.07512)
(0.0475234 0.168395 1.07345)
(0.0158358 0.169437 1.07261)
(-0.0158361 0.169437 1.07261)
(-0.0475237 0.168395 1.07345)
(-0.0793393 0.166368 1.07512)
(-0.111091 0.163605 1.0776)
(-0.140547 0.163064 1.08028)
(0.0110845 0.0141661 0.267139)
(0.00930794 0.0174248 0.279432)
(0.00702813 0.0200398 0.289499)
(0.00444772 0.0218321 0.296506)
(0.00152169 0.0227656 0.300093)
(-0.00152171 0.0227656 0.300093)
(-0.00444774 0.0218321 0.296506)
(-0.00702815 0.0200398 0.289499)
(-0.00930796 0.0174248 0.279432)
(-0.0110846 0.014166 0.267139)
(0.0533284 0.064569 0.630821)
(0.0457599 0.0776587 0.652791)
(0.0350063 0.0888625 0.670411)
(0.0221234 0.096794 0.682526)
(0.00756966 0.100955 0.688675)
(-0.00756972 0.100955 0.688675)
(-0.0221235 0.096794 0.682526)
(-0.0350064 0.0888625 0.670411)
(-0.0457599 0.0776587 0.652791)
(-0.0533285 0.064569 0.630821)
(0.0952278 0.113825 0.87776)
(0.0811663 0.134527 0.901525)
(0.0617473 0.15227 0.920159)
(0.0387824 0.164774 0.932813)
(0.0132289 0.171298 0.939183)
(-0.013229 0.171298 0.939183)
(-0.0387825 0.164774 0.932813)
(-0.0617474 0.15227 0.920159)
(-0.0811664 0.134527 0.901525)
(-0.0952279 0.113825 0.87776)
(0.129536 0.1537 1.04475)
(0.109432 0.17881 1.06652)
(0.0826876 0.20022 1.08317)
(0.0516282 0.21519 1.09433)
(0.0175585 0.222955 1.09989)
(-0.0175587 0.222955 1.09989)
(-0.0516284 0.21519 1.09433)
(-0.0826878 0.20022 1.08317)
(-0.109432 0.17881 1.06652)
(-0.129536 0.1537 1.04475)
(0.153519 0.181133 1.15628)
(0.128534 0.207628 1.17444)
(0.0964783 0.230058 1.18793)
(0.0599133 0.245615 1.19683)
(0.0203212 0.253636 1.20123)
(-0.0203214 0.253636 1.20123)
(-0.0599135 0.245615 1.19683)
(-0.0964785 0.230058 1.18793)
(-0.128534 0.207628 1.17444)
(-0.153519 0.181133 1.15628)
(0.167408 0.196516 1.22914)
(0.138923 0.221999 1.24324)
(0.103612 0.243372 1.25334)
(0.0640192 0.258085 1.25989)
(0.0216592 0.265626 1.26308)
(-0.0216594 0.265626 1.26308)
(-0.0640194 0.258085 1.25989)
(-0.103612 0.243372 1.25334)
(-0.138923 0.221999 1.24324)
(-0.167408 0.196516 1.22914)
(0.172413 0.201366 1.27527)
(0.1418 0.224065 1.28548)
(0.105104 0.242866 1.29248)
(0.064633 0.25572 1.2969)
(0.0218151 0.262274 1.29902)
(-0.0218154 0.262274 1.29902)
(-0.0646333 0.25572 1.2969)
(-0.105105 0.242865 1.29248)
(-0.1418 0.224065 1.28548)
(-0.172413 0.201366 1.27527)
(0.169994 0.197453 1.30316)
(0.138552 0.216138 1.30999)
(0.102089 0.231349 1.31439)
(0.0624999 0.241693 1.31706)
(0.0210484 0.246949 1.3183)
(-0.0210488 0.246949 1.3183)
(-0.0625003 0.241693 1.31706)
(-0.102089 0.231349 1.31439)
(-0.138553 0.216138 1.30999)
(-0.169994 0.197453 1.30316)
(0.161681 0.186541 1.31882)
(0.130658 0.200429 1.32291)
(0.0957158 0.211407 1.32529)
(0.0583442 0.218891 1.32661)
(0.0196066 0.222691 1.32719)
(-0.019607 0.222691 1.32719)
(-0.0583446 0.218891 1.32661)
(-0.0957161 0.211406 1.32529)
(-0.130658 0.200429 1.32291)
(-0.161681 0.18654 1.31882)
(0.149077 0.171328 1.32656)
(0.119695 0.178135 1.32859)
(0.0869749 0.184695 1.32948)
(0.0527532 0.18921 1.32984)
(0.0176851 0.191502 1.32995)
(-0.0176856 0.191502 1.32995)
(-0.0527537 0.18921 1.32984)
(-0.0869754 0.184695 1.32948)
(-0.119695 0.178134 1.32858)
(-0.149077 0.171328 1.32655)
(0.0010642 0.00118295 0.160639)
(0.00108267 0.00151265 0.169084)
(0.000845775 0.00190584 0.176131)
(0.000566359 0.00219797 0.181118)
(0.000197454 0.0023599 0.183699)
(-0.000197474 0.0023599 0.183699)
(-0.000566381 0.00219797 0.181118)
(-0.000845798 0.00190583 0.176131)
(-0.00108269 0.00151264 0.169084)
(-0.00106422 0.00118293 0.160639)
(0.0172031 0.0199574 0.448558)
(0.0154777 0.0243376 0.468977)
(0.0121134 0.0284696 0.485734)
(0.00777835 0.0315212 0.497491)
(0.00268006 0.03316 0.50354)
(-0.00268012 0.03316 0.50354)
(-0.00777841 0.0315211 0.497491)
(-0.0121135 0.0284696 0.485734)
(-0.0154778 0.0243376 0.468977)
(-0.0172031 0.0199573 0.448558)
(0.0389707 0.0453671 0.693828)
(0.0344082 0.0544542 0.721468)
(0.0267178 0.0627525 0.743778)
(0.0170114 0.0688149 0.759294)
(0.0058394 0.0720414 0.767236)
(-0.0058395 0.0720414 0.767236)
(-0.0170115 0.0688149 0.759294)
(-0.0267179 0.0627524 0.743778)
(-0.0344083 0.0544541 0.721468)
(-0.0389708 0.0453671 0.693828)
(0.0621732 0.0724523 0.895988)
(0.0541441 0.0857027 0.926868)
(0.0417142 0.0975618 0.951357)
(0.0263823 0.106128 0.968231)
(0.00902733 0.110653 0.97682)
(-0.00902748 0.110653 0.97682)
(-0.0263825 0.106128 0.968231)
(-0.0417144 0.0975618 0.951357)
(-0.0541442 0.0857026 0.926868)
(-0.0621734 0.0724522 0.895988)
(0.0825582 0.0961144 1.05862)
(0.0710454 0.112072 1.08979)
(0.054326 0.126135 1.11405)
(0.0341562 0.136187 1.1306)
(0.0116539 0.141459 1.13897)
(-0.0116541 0.141459 1.13897)
(-0.0341564 0.136187 1.1306)
(-0.0543262 0.126135 1.11405)
(-0.0710456 0.112072 1.08979)
(-0.0825583 0.0961143 1.05862)
(0.098082 0.113908 1.18685)
(0.0834822 0.130896 1.21632)
(0.0633771 0.145653 1.2388)
(0.0396295 0.156102 1.25399)
(0.0134853 0.161547 1.26162)
(-0.0134855 0.161547 1.26162)
(-0.0396297 0.156102 1.25399)
(-0.0633773 0.145653 1.2388)
(-0.0834825 0.130896 1.21632)
(-0.0980822 0.113908 1.18685)
(0.108066 0.125066 1.28615)
(0.0910115 0.14152 1.31271)
(0.0686097 0.155593 1.33258)
(0.0426788 0.165472 1.34585)
(0.0144859 0.17059 1.35248)
(-0.0144862 0.17059 1.35248)
(-0.0426791 0.165472 1.34585)
(-0.0686099 0.155593 1.33258)
(-0.0910118 0.14152 1.31271)
(-0.108066 0.125066 1.28615)
(0.112531 0.129646 1.36166)
(0.0937901 0.144243 1.38474)
(0.0702214 0.1565 1.40168)
(0.0434633 0.165038 1.41287)
(0.0147157 0.16944 1.41842)
(-0.0147161 0.16944 1.41842)
(-0.0434636 0.165038 1.41287)
(-0.0702217 0.1565 1.40168)
(-0.0937904 0.144243 1.38474)
(-0.112531 0.129646 1.36166)
(0.111971 0.128203 1.41792)
(0.0923909 0.139924 1.43749)
(0.0686902 0.14948 1.45157)
(0.0422964 0.156111 1.46075)
(0.0142839 0.159516 1.46526)
(-0.0142843 0.159516 1.46526)
(-0.0422968 0.156111 1.46075)
(-0.0686906 0.14948 1.45157)
(-0.0923913 0.139924 1.43749)
(-0.111971 0.128203 1.41792)
(0.107259 0.122462 1.45874)
(0.0876603 0.129296 1.47536)
(0.0645395 0.135534 1.48684)
(0.0394982 0.139848 1.4942)
(0.0132992 0.142052 1.49777)
(-0.0132996 0.142052 1.49777)
(-0.0394986 0.139848 1.4942)
(-0.0645399 0.135533 1.48684)
(-0.0876607 0.129296 1.47536)
(-0.107259 0.122462 1.45874)
(0.000681337 0.000899231 0.142473)
(0.000529528 0.00112776 0.149507)
(0.000360861 0.00128844 0.155231)
(0.000222538 0.00138269 0.159249)
(7.43295e-05 0.00142949 0.161322)
(-7.43475e-05 0.00142949 0.161322)
(-0.000222555 0.00138268 0.159249)
(-0.00036088 0.00128843 0.155231)
(-0.000529549 0.00112775 0.149507)
(-0.000681356 0.000899215 0.142473)
(0.00652192 0.00781735 0.406476)
(0.00565038 0.00963442 0.424928)
(0.00433728 0.0112021 0.439851)
(0.00276352 0.0123236 0.45029)
(0.000948479 0.0129191 0.455661)
(-0.000948534 0.0129191 0.455661)
(-0.00276357 0.0123236 0.45029)
(-0.00433733 0.0112021 0.439851)
(-0.00565045 0.00963438 0.424928)
(-0.00652197 0.00781731 0.406476)
(0.0158584 0.0187585 0.643019)
(0.0138068 0.0228236 0.669905)
(0.0106683 0.0263835 0.691463)
(0.00678872 0.0289599 0.706469)
(0.00233006 0.0303283 0.714165)
(-0.00233015 0.0303283 0.714165)
(-0.00678882 0.0289599 0.706469)
(-0.0106684 0.0263835 0.691463)
(-0.0138069 0.0228236 0.669905)
(-0.0158585 0.0187585 0.643019)
(0.0270067 0.0317587 0.850118)
(0.0234329 0.0381583 0.882434)
(0.01808 0.0437619 0.90807)
(0.0114674 0.0478132 0.925808)
(0.00393012 0.0499579 0.934871)
(-0.00393025 0.0499579 0.934871)
(-0.0114675 0.0478132 0.925808)
(-0.0180802 0.0437619 0.90807)
(-0.0234331 0.0381582 0.882434)
(-0.0270068 0.0317586 0.850118)
(0.0380641 0.0445598 1.02784)
(0.0328141 0.0528367 1.06289)
(0.02521 0.0600409 1.09036)
(0.0159233 0.0652215 1.10923)
(0.00544634 0.0679515 1.11884)
(-0.00544651 0.0679515 1.11884)
(-0.0159235 0.0652214 1.10923)
(-0.0252102 0.0600408 1.09036)
(-0.0328142 0.0528367 1.06289)
(-0.0380643 0.0445598 1.02783)
(0.0476893 0.0555812 1.17762)
(0.0407864 0.0649818 1.2132)
(0.0311612 0.0730841 1.2407)
(0.0195922 0.0788695 1.25946)
(0.00668612 0.0819025 1.26896)
(-0.00668634 0.0819025 1.26896)
(-0.0195924 0.0788694 1.25946)
(-0.0311614 0.073084 1.2407)
(-0.0407866 0.0649817 1.2132)
(-0.0476895 0.0555811 1.17762)
(0.055037 0.0638461 1.30172)
(0.0466551 0.0735046 1.33612)
(0.0354234 0.0817191 1.36234)
(0.0221651 0.0875388 1.38009)
(0.00754616 0.0905736 1.38904)
(-0.00754642 0.0905736 1.38904)
(-0.0221653 0.0875388 1.38009)
(-0.0354236 0.0817191 1.36234)
(-0.0466553 0.0735045 1.33612)
(-0.0550372 0.063846 1.30171)
(0.0596407 0.0688187 1.40271)
(0.0500823 0.0778795 1.43477)
(0.0377763 0.085455 1.45889)
(0.0235209 0.0907781 1.47509)
(0.00798801 0.0935395 1.48321)
(-0.00798831 0.0935395 1.48321)
(-0.0235212 0.090778 1.47509)
(-0.0377765 0.085455 1.45889)
(-0.0500826 0.0778794 1.43477)
(-0.0596409 0.0688186 1.40271)
(0.0613941 0.0703439 1.48324)
(0.0510616 0.078057 1.5124)
(0.0382427 0.0843256 1.53402)
(0.0236842 0.0887017 1.5484)
(0.00802182 0.09096 1.55556)
(-0.00802214 0.09096 1.55556)
(-0.0236845 0.0887017 1.54839)
(-0.038243 0.0843256 1.53402)
(-0.0510619 0.078057 1.5124)
(-0.0613943 0.0703439 1.48324)
(0.0605315 0.0691526 1.54571)
(0.049838 0.0741681 1.57232)
(0.036956 0.0785433 1.59132)
(0.0227395 0.0815739 1.60377)
(0.00767709 0.083127 1.60992)
(-0.00767743 0.0831271 1.60991)
(-0.0227398 0.0815739 1.60377)
(-0.0369563 0.0785433 1.59132)
(-0.0498383 0.0741681 1.57232)
(-0.0605318 0.0691526 1.54571)
(0.00011082 0.00011858 0.13248)
(0.000104679 0.000156861 0.139098)
(7.74574e-05 0.000197794 0.144474)
(5.29861e-05 0.000226614 0.148254)
(1.82857e-05 0.000242948 0.150205)
(-1.83001e-05 0.000242947 0.150205)
(-5.30009e-05 0.000226611 0.148254)
(-7.74728e-05 0.000197788 0.144474)
(-0.000104695 0.000156852 0.139098)
(-0.000110835 0.000118568 0.13248)
(0.00219741 0.00253883 0.381844)
(0.00196824 0.00314891 0.399592)
(0.00154159 0.00371438 0.413953)
(0.000995926 0.0041349 0.424022)
(0.000343804 0.00436307 0.429209)
(-0.000343847 0.00436307 0.429209)
(-0.000995971 0.00413489 0.424022)
(-0.00154163 0.00371436 0.413953)
(-0.00196829 0.00314889 0.399592)
(-0.00219746 0.0025388 0.381844)
(0.00597112 0.00692737 0.610097)
(0.00530467 0.00848866 0.63661)
(0.00415541 0.00991037 0.657927)
(0.00266871 0.0109669 0.67282)
(0.000919797 0.0115359 0.680474)
(-0.00091987 0.0115359 0.680474)
(-0.00266878 0.0109669 0.67282)
(-0.00415549 0.00991035 0.657927)
(-0.00530474 0.00848863 0.63661)
(-0.0059712 0.00692733 0.610097)
(0.0109113 0.0126671 0.81552)
(0.00962225 0.0153421 0.848338)
(0.00751225 0.0177515 0.874507)
(0.00480277 0.0195318 0.892706)
(0.00165224 0.0204854 0.902033)
(-0.00165234 0.0204854 0.902033)
(-0.00480287 0.0195317 0.892706)
(-0.00751236 0.0177514 0.874507)
(-0.00962235 0.0153421 0.848338)
(-0.0109114 0.012667 0.815519)
(0.0162295 0.0188157 0.997399)
(0.0142001 0.0225077 1.03416)
(0.0110322 0.0257989 1.06319)
(0.0070216 0.0282132 1.08326)
(0.00241054 0.0294996 1.09352)
(-0.00241067 0.0294996 1.09352)
(-0.00702174 0.0282132 1.08326)
(-0.0110323 0.0257989 1.06319)
(-0.0142002 0.0225077 1.03416)
(-0.0162296 0.0188156 0.997399)
(0.02125 0.0245711 1.15589)
(0.0184364 0.0289958 1.19447)
(0.014241 0.0328949 1.22459)
(0.0090217 0.0357324 1.24531)
(0.00309022 0.0372361 1.25585)
(-0.00309038 0.0372361 1.25585)
(-0.00902187 0.0357324 1.24531)
(-0.0142412 0.0328949 1.22459)
(-0.0184365 0.0289958 1.19447)
(-0.0212501 0.024571 1.15589)
(0.0254518 0.0293226 1.29177)
(0.0218823 0.0340832 1.33037)
(0.0167954 0.0382213 1.36016)
(0.0105882 0.0412074 1.38053)
(0.00361808 0.042781 1.39085)
(-0.00361828 0.042781 1.39085)
(-0.0105884 0.0412073 1.38053)
(-0.0167956 0.0382213 1.36016)
(-0.0218825 0.0340831 1.33037)
(-0.025452 0.0293225 1.29177)
(0.02847 0.0326425 1.40627)
(0.0242433 0.0372968 1.4435)
(0.0184811 0.0412755 1.47191)
(0.0115913 0.0441202 1.4912)
(0.00395073 0.0456106 1.50094)
(-0.00395095 0.0456106 1.50094)
(-0.0115915 0.0441202 1.4912)
(-0.0184813 0.0412754 1.47191)
(-0.0242435 0.0372968 1.4435)
(-0.0284702 0.0326424 1.40627)
(0.0301269 0.0343067 1.50076)
(0.0253975 0.0384318 1.53578)
(0.0192134 0.0418592 1.56218)
(0.011981 0.0442871 1.57995)
(0.00407159 0.0455506 1.58886)
(-0.00407183 0.0455506 1.58886)
(-0.0119812 0.0442871 1.57995)
(-0.0192136 0.0418592 1.56218)
(-0.0253978 0.0384318 1.53578)
(-0.0301271 0.0343066 1.50076)
(0.030437 0.0345915 1.57652)
(0.0253562 0.0374547 1.6096)
(0.018973 0.0399416 1.63362)
(0.011746 0.0416804 1.64954)
(0.00397737 0.0425769 1.65746)
(-0.00397762 0.0425769 1.65746)
(-0.0117463 0.0416804 1.64954)
(-0.0189733 0.0399416 1.63362)
(-0.0253564 0.0374547 1.60959)
(-0.0304372 0.0345915 1.57652)
(7.09927e-05 9.66903e-05 0.130049)
(4.89977e-05 0.000122749 0.136495)
(2.92927e-05 0.000137611 0.141701)
(1.74477e-05 0.000144617 0.145355)
(5.59265e-06 0.000147831 0.147239)
(-5.604e-06 0.00014783 0.147239)
(-1.74592e-05 0.000144615 0.145355)
(-2.93046e-05 0.000137607 0.141701)
(-4.90097e-05 0.000122742 0.136495)
(-7.10041e-05 9.66808e-05 0.130049)
(0.000874805 0.00104921 0.374858)
(0.000747644 0.00130165 0.392228)
(0.000568962 0.00151283 0.406225)
(0.000362095 0.00166315 0.416029)
(0.000124092 0.00174314 0.421076)
(-0.000124126 0.00174314 0.421076)
(-0.00036213 0.00166314 0.416029)
(-0.000568998 0.00151281 0.406225)
(-0.00074768 0.00130163 0.392228)
(-0.000874838 0.00104918 0.374858)
(0.00239366 0.00282587 0.599942)
(0.00208345 0.00347431 0.626101)
(0.00161281 0.00403808 0.647078)
(0.00102972 0.00444984 0.661729)
(0.000353944 0.00467004 0.669258)
(-0.000354001 0.00467003 0.669258)
(-0.00102978 0.00444983 0.661729)
(-0.00161287 0.00403806 0.647078)
(-0.00208351 0.00347428 0.626101)
(-0.00239372 0.00282584 0.599942)
(0.00446101 0.00523158 0.80426)
(0.00389538 0.00637138 0.837007)
(0.00302611 0.00737301 0.863091)
(0.00193088 0.00810807 0.881242)
(0.000663735 0.00850095 0.890548)
(-0.000663815 0.00850095 0.890548)
(-0.00193096 0.00810806 0.881242)
(-0.00302619 0.00737299 0.863091)
(-0.00389546 0.00637135 0.837007)
(-0.00446109 0.00523153 0.80426)
(0.00679695 0.00793288 0.987271)
(0.00592174 0.00955664 1.02445)
(0.00459464 0.0109839 1.05383)
(0.00292483 0.0120293 1.07418)
(0.00100436 0.0125865 1.08458)
(-0.00100446 0.0125865 1.08458)
(-0.00292493 0.0120293 1.07418)
(-0.00459474 0.0109839 1.05383)
(-0.00592184 0.0095566 1.02445)
(-0.00679704 0.00793284 0.987271)
(0.00912267 0.0105997 1.14895)
(0.00790745 0.0126102 1.18856)
(0.00611323 0.0143675 1.21957)
(0.00387834 0.0156481 1.24094)
(0.0013296 0.016328 1.25183)
(-0.00132972 0.016328 1.25183)
(-0.00387847 0.0156481 1.24094)
(-0.00611336 0.0143675 1.21957)
(-0.00790757 0.0126101 1.18856)
(-0.00912278 0.0105996 1.14895)
(0.0111879 0.0129382 1.28969)
(0.00963018 0.0151713 1.32997)
(0.00740754 0.0171037 1.36118)
(0.00468022 0.0185022 1.38258)
(0.00160123 0.0192412 1.39346)
(-0.00160138 0.0192412 1.39346)
(-0.00468036 0.0185022 1.38258)
(-0.00740769 0.0171036 1.36118)
(-0.00963032 0.0151712 1.32997)
(-0.011188 0.0129382 1.28969)
(0.0127887 0.0147081 1.4102)
(0.0109179 0.01696 1.44969)
(0.00834763 0.0188815 1.48001)
(0.00524953 0.0202603 1.50068)
(0.00179175 0.0209848 1.51114)
(-0.00179192 0.0209848 1.51114)
(-0.00524969 0.0202603 1.50068)
(-0.00834779 0.0188814 1.48001)
(-0.010918 0.01696 1.44969)
(-0.0127888 0.0147081 1.4102)
(0.0137978 0.015749 1.51128)
(0.0116714 0.017809 1.54907)
(0.00885959 0.0195214 1.57777)
(0.00554032 0.0207386 1.59716)
(0.00188558 0.0213736 1.60692)
(-0.00188576 0.0213736 1.60692)
(-0.0055405 0.0207386 1.59716)
(-0.00885975 0.0195214 1.57776)
(-0.0116716 0.0178089 1.54907)
(-0.0137979 0.015749 1.51128)
(0.0141797 0.0161456 1.59364)
(0.0118548 0.017644 1.62995)
(0.00890274 0.0189324 1.65653)
(0.00552733 0.0198355 1.67423)
(0.00187433 0.0203021 1.68307)
(-0.00187452 0.0203021 1.68307)
(-0.00552751 0.0198355 1.67423)
(-0.00890291 0.0189324 1.65653)
(-0.0118549 0.017644 1.62995)
(-0.0141798 0.0161456 1.59363)
(8.28069e-06 9.72347e-06 0.128805)
(5.66823e-06 1.37835e-05 0.135198)
(2.93891e-06 1.66765e-05 0.140358)
(2.20776e-06 1.83414e-05 0.14398)
(7.27896e-07 1.93004e-05 0.145848)
(-7.36682e-07 1.92997e-05 0.145848)
(-2.2166e-06 1.83393e-05 0.14398)
(-2.94784e-06 1.6673e-05 0.140358)
(-5.67708e-06 1.37783e-05 0.135198)
(-8.28876e-06 9.71666e-06 0.128805)
(0.000282182 0.000329028 0.371373)
(0.000246682 0.000411314 0.38861)
(0.000190839 0.000483705 0.402493)
(0.000123048 0.000537107 0.412219)
(4.24024e-05 0.000566081 0.417227)
(-4.24286e-05 0.00056608 0.417227)
(-0.000123074 0.000537101 0.412219)
(-0.000190865 0.000483696 0.402493)
(-0.000246708 0.0004113 0.38861)
(-0.000282206 0.00032901 0.371373)
(0.000847018 0.00098547 0.594769)
(0.000746922 0.00121915 0.620785)
(0.000584069 0.00142771 0.641645)
(0.00037564 0.00158321 0.656221)
(0.000129548 0.00166728 0.663713)
(-0.000129591 0.00166728 0.663713)
(-0.000375683 0.0015832 0.656221)
(-0.000584112 0.00142769 0.641645)
(-0.000746965 0.00121913 0.620785)
(-0.000847057 0.000985443 0.594768)
(0.00166026 0.00192797 0.798209)
(0.00146452 0.00236229 0.830905)
(0.00114703 0.00275095 0.856958)
(0.000736119 0.00304073 0.875101)
(0.000253732 0.00319695 0.884406)
(-0.000253792 0.00319694 0.884406)
(-0.000736179 0.00304072 0.875101)
(-0.00114709 0.00275093 0.856958)
(-0.00146458 0.00236227 0.830905)
(-0.00166031 0.00192794 0.798209)
(0.00262187 0.0030366 0.98128)
(0.00230545 0.00368104 1.0186)
(0.00180238 0.00425617 1.04811)
(0.00115348 0.00468337 1.06858)
(0.00039712 0.00491285 1.07905)
(-0.000397197 0.00491285 1.07905)
(-0.00115356 0.00468336 1.06858)
(-0.00180246 0.00425615 1.04811)
(-0.00230553 0.00368101 1.0186)
(-0.00262194 0.00303656 0.98128)
(0.00362088 0.00417945 1.14395)
(0.00316709 0.00500437 1.18396)
(0.00246678 0.00573574 1.21533)
(0.00157321 0.00627587 1.23699)
(0.000540728 0.00656477 1.24804)
(-0.000540821 0.00656477 1.24804)
(-0.0015733 0.00627585 1.23699)
(-0.00246687 0.00573572 1.21533)
(-0.00316717 0.00500435 1.18396)
(-0.00362096 0.00417941 1.14395)
(0.0045483 0.00522826 1.28651)
(0.003951 0.00617116 1.32748)
(0.00306188 0.00699876 1.3593)
(0.00194472 0.0076055 1.38118)
(0.000667058 0.00792842 1.3923)
(-0.000667166 0.00792842 1.3923)
(-0.00194482 0.00760549 1.38118)
(-0.00306198 0.00699874 1.3593)
(-0.0039511 0.00617113 1.32748)
(-0.00454839 0.00522822 1.28651)
(0.00530781 0.0060692 1.40947)
(0.00457359 0.00704495 1.44996)
(0.00352291 0.0078896 1.48113)
(0.0022269 0.0085032 1.50244)
(0.000762002 0.00882781 1.51324)
(-0.000762122 0.00882781 1.51324)
(-0.00222701 0.00850319 1.50244)
(-0.00352303 0.00788959 1.48113)
(-0.0045737 0.00704492 1.44996)
(-0.00530791 0.00606917 1.40947)
(0.00583264 0.00661974 1.51341)
(0.00497911 0.00753505 1.55247)
(0.00380646 0.00830643 1.58223)
(0.002392 0.00886036 1.6024)
(0.000816025 0.00915105 1.61257)
(-0.000816155 0.00915105 1.61257)
(-0.00239213 0.00886036 1.6024)
(-0.00380658 0.00830642 1.58223)
(-0.00497923 0.00753503 1.55247)
(-0.00583274 0.00661972 1.51341)
(0.00609367 0.0069067 1.59876)
(0.00513542 0.00759724 1.63661)
(0.00388154 0.0081902 1.66441)
(0.0024204 0.00860869 1.68299)
(0.00082249 0.00882583 1.69228)
(-0.000822625 0.00882583 1.69228)
(-0.00242053 0.00860869 1.68299)
(-0.00388166 0.0081902 1.66441)
(-0.00513554 0.00759723 1.63661)
(-0.00609378 0.00690668 1.59876)
(6.72292e-06 1.0743e-05 0.128521)
(2.81055e-06 1.39901e-05 0.134893)
(5.04998e-07 1.49748e-05 0.140031)
(2.05467e-08 1.49763e-05 0.143638)
(-7.6442e-08 1.48625e-05 0.145497)
(6.97774e-08 1.4862e-05 0.145497)
(-2.715e-08 1.49747e-05 0.143638)
(-5.11497e-07 1.49722e-05 0.140031)
(-2.81685e-06 1.39863e-05 0.134893)
(-6.72852e-06 1.07384e-05 0.128521)
(0.000107167 0.000131209 0.370424)
(8.79826e-05 0.000164111 0.3876)
(6.52945e-05 0.000189665 0.401424)
(4.11363e-05 0.000207371 0.411108)
(1.40099e-05 0.000216695 0.416093)
(-1.40296e-05 0.000216694 0.416093)
(-4.11558e-05 0.000207367 0.411108)
(-6.53137e-05 0.000189658 0.401424)
(-8.80012e-05 0.000164101 0.3876)
(-0.000107183 0.000131197 0.370424)
(0.000319376 0.000379684 0.593238)
(0.000274306 0.000470909 0.61918)
(0.000210965 0.000548073 0.639968)
(0.000134452 0.000604263 0.654492)
(4.61619e-05 0.000634318 0.661957)
(-4.61942e-05 0.000634316 0.661957)
(-0.000134484 0.000604257 0.654492)
(-0.000210997 0.000548063 0.639968)
(-0.000274337 0.000470894 0.61918)
(-0.000319403 0.000379666 0.593238)
(0.000632022 0.000742839 0.796334)
(0.000550097 0.000913838 0.82898)
(0.00042739 0.00106254 0.854985)
(0.000273146 0.00117221 0.873094)
(9.39667e-05 0.00123106 0.882384)
(-9.40112e-05 0.00123106 0.882384)
(-0.00027319 0.0011722 0.873094)
(-0.000427434 0.00106253 0.854985)
(-0.000550139 0.000913819 0.82898)
(-0.00063206 0.000742816 0.796333)
(0.00101314 0.00118253 0.979388)
(0.000884592 0.00144071 1.01673)
(0.00068891 0.00166728 1.04625)
(0.000440149 0.00183475 1.06674)
(0.000151424 0.00192455 1.07722)
(-0.00015148 0.00192455 1.07722)
(-0.000440204 0.00183474 1.06674)
(-0.000688965 0.00166727 1.04625)
(-0.000884644 0.00144069 1.01673)
(-0.00101318 0.0011825 0.979388)
(0.00142222 0.00165076 1.14241)
(0.00123967 0.00198797 1.18255)
(0.000964158 0.00228383 1.21402)
(0.000614744 0.00250193 1.23576)
(0.000211286 0.00261857 1.24686)
(-0.000211354 0.00261857 1.24686)
(-0.000614811 0.00250193 1.23576)
(-0.000964224 0.00228382 1.21402)
(-0.00123974 0.00198795 1.18255)
(-0.00142228 0.00165074 1.14241)
(0.00181533 0.0020958 1.28567)
(0.00157497 0.00248924 1.3269)
(0.00122056 0.00283233 1.35895)
(0.000775706 0.00308383 1.38098)
(0.000266176 0.00321778 1.3922)
(-0.000266254 0.00321778 1.3922)
(-0.000775784 0.00308383 1.38098)
(-0.00122064 0.00283231 1.35895)
(-0.00157504 0.00248922 1.3269)
(-0.00181539 0.00209577 1.28567)
(0.00215025 0.00246758 1.40964)
(0.00185318 0.00288315 1.45052)
(0.0014288 0.00324152 1.48203)
(0.000904206 0.00350207 1.50359)
(0.000309594 0.00364004 1.51453)
(-0.000309682 0.00364004 1.51453)
(-0.000904292 0.00350206 1.50359)
(-0.00142888 0.00324151 1.48203)
(-0.00185326 0.00288313 1.45052)
(-0.00215033 0.00246756 1.40963)
(0.00239481 0.00272598 1.51478)
(0.00204668 0.00312401 1.55438)
(0.00156703 0.00345896 1.58459)
(0.000986147 0.00369974 1.60509)
(0.000336672 0.00382623 1.61543)
(-0.000336766 0.00382623 1.61543)
(-0.00098624 0.00369974 1.60509)
(-0.00156712 0.00345895 1.58459)
(-0.00204677 0.00312399 1.55438)
(-0.00239489 0.00272596 1.51478)
(0.00253168 0.00287651 1.60144)
(0.00213689 0.0031852 1.63996)
(0.00161819 0.003449 1.66831)
(0.00101066 0.00363541 1.68727)
(0.000343709 0.00373222 1.69676)
(-0.000343808 0.00373222 1.69676)
(-0.00101076 0.0036354 1.68727)
(-0.00161829 0.00344899 1.66831)
(-0.00213697 0.00318519 1.63996)
(-0.00253176 0.00287649 1.60144)
(-5.77112e-07 -2.58873e-07 0.128381)
(-1.24648e-06 4.37562e-08 0.134747)
(-1.3621e-06 -8.08177e-08 0.139879)
(-8.92124e-07 -3.0958e-07 0.143482)
(-3.2395e-07 -4.41403e-07 0.145339)
(3.1907e-07 -4.41773e-07 0.145339)
(8.87329e-07 -3.10695e-07 0.143482)
(1.3575e-06 -8.2652e-08 0.139879)
(1.24213e-06 4.12024e-08 0.134747)
(5.73378e-07 -2.62006e-07 0.128381)
(2.88733e-05 3.45879e-05 0.369984)
(2.38316e-05 4.40545e-05 0.38714)
(1.78094e-05 5.16425e-05 0.400945)
(1.13439e-05 5.70779e-05 0.410616)
(3.87683e-06 5.99978e-05 0.415594)
(-3.89118e-06 5.99967e-05 0.415594)
(-1.1358e-05 5.70749e-05 0.410616)
(-1.7823e-05 5.16375e-05 0.400945)
(-2.38445e-05 4.40476e-05 0.38714)
(-2.88845e-05 3.45793e-05 0.369984)
(9.95403e-05 0.000116765 0.592529)
(8.6249e-05 0.000146472 0.618442)
(6.68838e-05 0.000172136 0.639205)
(4.29179e-05 0.000191215 0.653712)
(1.4778e-05 0.000201529 0.661168)
(-1.48014e-05 0.000201528 0.661168)
(-4.2941e-05 0.000191211 0.653712)
(-6.69061e-05 0.000172128 0.639205)
(-8.62702e-05 0.000146462 0.618442)
(-9.95589e-05 0.000116752 0.592529)
(0.000210459 0.000244949 0.795439)
(0.00018471 0.000304097 0.828062)
(0.000144591 0.000356339 0.854048)
(9.29263e-05 0.000395482 0.872146)
(3.2049e-05 0.00041666 0.88143)
(-3.20813e-05 0.000416658 0.88143)
(-9.29581e-05 0.000395477 0.872146)
(-0.000144622 0.00035633 0.854048)
(-0.000184739 0.000304083 0.828062)
(-0.000210485 0.000244933 0.795439)
(0.000351621 0.000407093 0.97843)
(0.000309501 0.000500011 1.01577)
(0.000242769 0.000582628 1.0453)
(0.000155908 0.000644528 1.06579)
(5.37654e-05 0.000677964 1.07627)
(-5.38061e-05 0.000677962 1.07627)
(-0.000155948 0.000644522 1.06579)
(-0.000242808 0.000582617 1.0453)
(-0.000309538 0.000499996 1.01577)
(-0.000351654 0.000407075 0.978429)
(0.000508597 0.000586056 1.14153)
(0.000446911 0.000711097 1.18171)
(0.000350038 0.000822141 1.21322)
(0.0002243 0.000905027 1.23499)
(7.72731e-05 0.000949657 1.24611)
(-7.73217e-05 0.000949654 1.24611)
(-0.000224348 0.000905021 1.23499)
(-0.000350084 0.00082213 1.21322)
(-0.000446955 0.000711081 1.18171)
(-0.000508637 0.000586038 1.14153)
(0.000664548 0.000761999 1.28501)
(0.000581289 0.000911486 1.32633)
(0.000453629 0.00104338 1.35847)
(0.000289709 0.0011412 1.38057)
(9.9642e-05 0.00119364 1.39182)
(-9.9698e-05 0.00119364 1.39182)
(-0.000289764 0.0011412 1.38057)
(-0.000453683 0.00104337 1.35847)
(-0.000581339 0.000911471 1.32633)
(-0.000664594 0.000761981 1.28501)
(0.000802424 0.000914729 1.40933)
(0.000697294 0.00107598 1.45037)
(0.000541283 0.00121665 1.48201)
(0.000344171 0.00132001 1.50368)
(0.000118106 0.00137507 1.51466)
(-0.000118169 0.00137507 1.51466)
(-0.000344233 0.00132001 1.50368)
(-0.000541343 0.00121664 1.48201)
(-0.00069735 0.00107597 1.45037)
(-0.000802475 0.000914712 1.40933)
(0.000908535 0.00102745 1.51494)
(0.000782721 0.00118501 1.55474)
(0.000603133 0.00131892 1.58513)
(0.000381225 0.00141602 1.60577)
(0.000130419 0.00146727 1.61619)
(-0.000130487 0.00146727 1.61619)
(-0.000381292 0.00141601 1.60577)
(-0.000603198 0.00131891 1.58513)
(-0.000782782 0.001185 1.55474)
(-0.000908591 0.00102744 1.51494)
(0.00097439 0.00110158 1.60211)
(0.000828098 0.00122711 1.6409)
(0.00063068 0.0013341 1.66947)
(0.000395408 0.0014101 1.68859)
(0.000134711 0.00144971 1.69816)
(-0.000134782 0.00144971 1.69816)
(-0.000395478 0.0014101 1.68859)
(-0.000630748 0.00133409 1.66947)
(-0.000828164 0.0012271 1.6409)
(-0.000974451 0.00110157 1.60211)
(2.62815e-07 9.28472e-07 0.128362)
(-4.43537e-07 1.3033e-06 0.134725)
(-6.76609e-07 1.2329e-06 0.139855)
(-5.17484e-07 1.03929e-06 0.143456)
(-1.97459e-07 9.07517e-07 0.145312)
(1.9401e-07 9.07259e-07 0.145312)
(5.14115e-07 1.0385e-06 0.143456)
(6.73489e-07 1.23162e-06 0.139855)
(4.40673e-07 1.30163e-06 0.134725)
(-2.65266e-07 9.26458e-07 0.128362)
(9.62366e-06 1.25951e-05 0.36989)
(6.94359e-06 1.61188e-05 0.387037)
(4.66047e-06 1.84058e-05 0.400833)
(2.77812e-06 1.98346e-05 0.410497)
(9.13988e-07 2.05478e-05 0.415472)
(-9.24108e-07 2.05471e-05 0.415472)
(-2.78802e-06 1.98324e-05 0.410497)