/*--------------------------------*- C++ -*----------------------------------*\
| =========                 |                                                 |
| \\      /  F ield         | OpenFOAM: The Open Source CFD Toolbox           |
|  \\    /   O peration     | Version:  2106                                  |
|   \\  /    A nd           | Website:  www.openfoam.com                      |
|    \\/     M anipulation  |                                                 |
\*---------------------------------------------------------------------------*/
FoamFile
{
    version     2.0;
    format      ascii;
    arch        "LSB;label=32;scalar=64";
    class       volVectorField;
    location    "0.34";
    object      U;
}
// * * * * * * * * * * * * * * * * * * * * * * * * * * * * * * * * * * * * * //

dimensions      [0 1 -1 0 0 0 0];

internalField   nonuniform List<vector> 
10000
(
(0.0625646 0.0737232 0.345098)
(0.0533595 0.0838438 0.359578)
(0.0398496 0.0929952 0.370943)
(0.024721 0.0993776 0.378792)
(0.0083778 0.102677 0.382781)
(-0.00837782 0.102677 0.382781)
(-0.024721 0.0993776 0.378792)
(-0.0398497 0.0929952 0.370943)
(-0.0533595 0.0838438 0.359578)
(-0.0625646 0.0737232 0.345098)
(0.17202 0.204086 0.727883)
(0.145203 0.231316 0.747537)
(0.1084 0.255266 0.762181)
(0.067066 0.271843 0.772081)
(0.0227014 0.280393 0.777031)
(-0.0227015 0.280393 0.777031)
(-0.0670661 0.271843 0.772081)
(-0.1084 0.255266 0.762181)
(-0.145203 0.231316 0.747537)
(-0.17202 0.204086 0.727883)
(0.22249 0.264193 0.923854)
(0.185695 0.295861 0.939689)
(0.137739 0.323511 0.95076)
(0.0847939 0.342424 0.958067)
(0.0286312 0.352114 0.961651)
(-0.0286313 0.352114 0.961651)
(-0.0847939 0.342424 0.958067)
(-0.137739 0.323511 0.95076)
(-0.185695 0.295861 0.939689)
(-0.22249 0.264193 0.923854)
(0.237347 0.281386 1.02302)
(0.196141 0.311179 1.03353)
(0.14458 0.337244 1.04021)
(0.0885888 0.35487 1.04447)
(0.0298441 0.36384 1.04651)
(-0.0298442 0.36384 1.04651)
(-0.0885889 0.35487 1.04447)
(-0.14458 0.337244 1.04021)
(-0.196141 0.311179 1.03353)
(-0.237348 0.281386 1.02302)
(0.235203 0.278353 1.0714)
(0.192754 0.304217 1.07736)
(0.141324 0.326979 1.08049)
(0.0862408 0.342234 1.08237)
(0.0289961 0.349949 1.08322)
(-0.0289962 0.349949 1.08322)
(-0.086241 0.342234 1.08237)
(-0.141324 0.326979 1.08049)
(-0.192754 0.304217 1.07736)
(-0.235203 0.278353 1.0714)
(0.223967 0.26458 1.09249)
(0.182136 0.285803 1.09506)
(0.132892 0.304633 1.09571)
(0.0807896 0.317173 1.09595)
(0.0271144 0.323478 1.096)
(-0.0271146 0.323478 1.096)
(-0.0807898 0.317173 1.09595)
(-0.132892 0.304632 1.09571)
(-0.182136 0.285803 1.09506)
(-0.223967 0.264579 1.09249)
(0.207403 0.244395 1.09907)
(0.167366 0.260751 1.09933)
(0.121553 0.275407 1.0984)
(0.0736309 0.285146 1.09763)
(0.0246692 0.290019 1.09719)
(-0.0246694 0.290019 1.09719)
(-0.0736311 0.285146 1.09763)
(-0.121553 0.275407 1.0984)
(-0.167366 0.26075 1.09933)
(-0.207403 0.244394 1.09907)
(0.187867 0.220552 1.09833)
(0.15041 0.232102 1.09712)
(0.108765 0.242593 1.0953)
(0.0656641 0.249594 1.09397)
(0.0219643 0.253096 1.09327)
(-0.0219646 0.253096 1.09327)
(-0.0656644 0.249594 1.09397)
(-0.108765 0.242593 1.0953)
(-0.15041 0.232102 1.09712)
(-0.187867 0.220552 1.09833)
(0.166909 0.194865 1.09427)
(0.13266 0.201819 1.09216)
(0.0955313 0.208293 1.08991)
(0.0574905 0.21274 1.08834)
(0.0192003 0.214985 1.08754)
(-0.0192006 0.214985 1.08754)
(-0.0574908 0.21274 1.08834)
(-0.0955316 0.208293 1.08991)
(-0.13266 0.201819 1.09216)
(-0.16691 0.194865 1.09427)
(0.145708 0.168985 1.08913)
(0.11533 0.169899 1.08655)
(0.0824731 0.173014 1.08414)
(0.0494476 0.175288 1.08252)
(0.0164847 0.176457 1.08171)
(-0.0164851 0.176457 1.08171)
(-0.049448 0.175288 1.08252)
(-0.0824734 0.173014 1.08414)
(-0.11533 0.169899 1.08655)
(-0.145708 0.168985 1.08913)
(0.0111848 0.0142887 0.266757)
(0.009396 0.0175767 0.279032)
(0.00709459 0.0202176 0.289084)
(0.00449065 0.022028 0.296081)
(0.00153642 0.0229711 0.299662)
(-0.00153645 0.0229711 0.299662)
(-0.00449069 0.022028 0.296081)
(-0.00709462 0.0202176 0.289084)
(-0.00939603 0.0175767 0.279032)
(-0.0111849 0.0142887 0.266757)
(0.0542662 0.065668 0.630276)
(0.0465912 0.0790021 0.652261)
(0.0356539 0.0904259 0.669891)
(0.0225384 0.0985187 0.682015)
(0.00771249 0.102766 0.688169)
(-0.00771258 0.102766 0.688169)
(-0.0225385 0.0985187 0.682015)
(-0.035654 0.0904258 0.669891)
(-0.0465913 0.0790021 0.652261)
(-0.0542663 0.0656679 0.630276)
(0.097371 0.11632 0.877703)
(0.0830554 0.137548 0.901577)
(0.0632184 0.155761 0.9203)
(0.0397218 0.16861 0.93302)
(0.0135518 0.175319 0.939424)
(-0.013552 0.175319 0.939424)
(-0.0397219 0.16861 0.93302)
(-0.0632185 0.155761 0.9203)
(-0.0830555 0.137548 0.901577)
(-0.0973711 0.11632 0.877703)
(0.133084 0.157815 1.04578)
(0.112541 0.183746 1.06781)
(0.0851021 0.205883 1.08467)
(0.0531649 0.221386 1.09598)
(0.018086 0.229435 1.10162)
(-0.0180862 0.229435 1.10162)
(-0.0531652 0.221386 1.09598)
(-0.0851023 0.205883 1.08467)
(-0.112541 0.183746 1.06781)
(-0.133084 0.157815 1.04578)
(0.15848 0.186866 1.15891)
(0.132852 0.214434 1.17752)
(0.0998196 0.237806 1.19136)
(0.062033 0.254051 1.20053)
(0.0210476 0.262437 1.20506)
(-0.0210479 0.262437 1.20506)
(-0.0620332 0.254051 1.20053)
(-0.0998199 0.237806 1.19136)
(-0.132852 0.214433 1.17752)
(-0.15848 0.186866 1.15891)
(0.173646 0.203696 1.2338)
(0.144313 0.230422 1.24853)
(0.107764 0.252878 1.25915)
(0.0666436 0.268377 1.26607)
(0.0225571 0.276334 1.26946)
(-0.0225574 0.276334 1.26946)
(-0.066644 0.268377 1.26607)
(-0.107764 0.252878 1.25915)
(-0.144313 0.230422 1.24853)
(-0.173646 0.203696 1.2338)
(0.179686 0.209701 1.28224)
(0.148034 0.233711 1.29328)
(0.109881 0.253641 1.30094)
(0.0676401 0.267309 1.30584)
(0.0228419 0.274292 1.30821)
(-0.0228423 0.274292 1.30821)
(-0.0676405 0.267309 1.30584)
(-0.109881 0.253641 1.30094)
(-0.148034 0.233711 1.29328)
(-0.179686 0.209701 1.28224)
(0.177985 0.206564 1.31262)
(0.145342 0.226516 1.32044)
(0.107259 0.242802 1.32563)
(0.0657398 0.253915 1.32886)
(0.0221522 0.259573 1.33039)
(-0.0221526 0.259573 1.33039)
(-0.0657403 0.253915 1.32886)
(-0.10726 0.242802 1.32563)
(-0.145342 0.226516 1.32044)
(-0.177985 0.206564 1.31262)
(0.170039 0.196006 1.3308)
(0.137688 0.211011 1.33601)
(0.101029 0.222908 1.33926)
(0.0616544 0.231044 1.34121)
(0.020731 0.235182 1.3421)
(-0.0207315 0.235182 1.3421)
(-0.0616549 0.231044 1.34121)
(-0.10103 0.222908 1.33926)
(-0.137689 0.211011 1.33601)
(-0.170039 0.196005 1.33079)
(0.15744 0.180821 1.34096)
(0.126645 0.188381 1.34421)
(0.0921664 0.1956 1.34603)
(0.055963 0.200574 1.34702)
(0.0187713 0.203103 1.34745)
(-0.0187719 0.203103 1.34745)
(-0.0559636 0.200574 1.34702)
(-0.0921669 0.1956 1.34603)
(-0.126646 0.18838 1.34421)
(-0.15744 0.180821 1.34096)
(0.00110896 0.00123789 0.158309)
(0.00112128 0.00158149 0.166644)
(0.000874085 0.00198648 0.173601)
(0.000584904 0.00228647 0.178525)
(0.000203792 0.00245265 0.181073)
(-0.000203825 0.00245264 0.181073)
(-0.000584936 0.00228647 0.178525)
(-0.000874116 0.00198647 0.173601)
(-0.00112131 0.00158147 0.166644)
(-0.00110899 0.00123787 0.158309)
(0.0178298 0.0206902 0.443577)
(0.0160341 0.0252396 0.463869)
(0.0125475 0.0295226 0.480528)
(0.00805752 0.0326854 0.492218)
(0.00277624 0.034384 0.498234)
(-0.00277634 0.034384 0.498234)
(-0.00805761 0.0326854 0.492218)
(-0.0125476 0.0295226 0.480528)
(-0.0160342 0.0252396 0.463869)
(-0.0178299 0.0206902 0.443577)
(0.0405623 0.0472187 0.688156)
(0.0358175 0.0567148 0.715836)
(0.0278196 0.0653776 0.738196)
(0.0177177 0.0717094 0.753754)
(0.00608258 0.0750803 0.76172)
(-0.00608275 0.0750803 0.76172)
(-0.0177178 0.0717093 0.753754)
(-0.0278198 0.0653776 0.738195)
(-0.0358176 0.0567147 0.715836)
(-0.0405624 0.0472187 0.688156)
(0.0649921 0.0757214 0.891373)
(0.0566278 0.0896592 0.92261)
(0.0436528 0.102128 0.947416)
(0.0276211 0.111143 0.964527)
(0.00945337 0.115908 0.973242)
(-0.00945359 0.115908 0.973242)
(-0.0276213 0.111143 0.964527)
(-0.043653 0.102128 0.947416)
(-0.056628 0.0896591 0.92261)
(-0.0649922 0.0757213 0.891372)
(0.0866938 0.100895 1.05655)
(0.0746666 0.1178 1.0885)
(0.0571424 0.132696 1.11342)
(0.03595 0.143359 1.13045)
(0.0122699 0.148957 1.13909)
(-0.0122702 0.148957 1.13909)
(-0.0359503 0.143359 1.13045)
(-0.0571427 0.132696 1.11342)
(-0.0746669 0.1178 1.0885)
(-0.086694 0.100895 1.05655)
(0.103476 0.12012 1.18855)
(0.0881708 0.138252 1.21925)
(0.0670065 0.154006 1.24277)
(0.0419323 0.165182 1.2587)
(0.0142746 0.171013 1.26674)
(-0.014275 0.171013 1.26674)
(-0.0419326 0.165182 1.2587)
(-0.0670068 0.154006 1.24277)
(-0.0881711 0.138252 1.21925)
(-0.103476 0.12012 1.18855)
(0.114539 0.13249 1.29248)
(0.0965918 0.150191 1.32073)
(0.0729047 0.165339 1.342)
(0.0453923 0.175996 1.35628)
(0.0154141 0.181524 1.36344)
(-0.0154145 0.181524 1.36344)
(-0.0453927 0.175996 1.35628)
(-0.0729051 0.165339 1.342)
(-0.0965921 0.150191 1.32073)
(-0.11454 0.13249 1.29248)
(0.119811 0.137952 1.37318)
(0.100008 0.153791 1.39837)
(0.0749753 0.167102 1.41701)
(0.0464517 0.176395 1.42941)
(0.0157353 0.181192 1.4356)
(-0.0157358 0.181192 1.4356)
(-0.0464522 0.176395 1.42941)
(-0.0749758 0.167102 1.41701)
(-0.100008 0.153791 1.39837)
(-0.119811 0.137952 1.37318)
(0.11973 0.136995 1.43485)
(0.098947 0.149843 1.45685)
(0.0736628 0.160325 1.47286)
(0.045403 0.167612 1.48339)
(0.0153406 0.171359 1.48861)
(-0.0153412 0.171359 1.48861)
(-0.0454035 0.167612 1.48339)
(-0.0736633 0.160325 1.47286)
(-0.0989475 0.149843 1.45685)
(-0.11973 0.136995 1.43485)
(0.115142 0.131416 1.48099)
(0.0942352 0.139045 1.5003)
(0.0694665 0.145965 1.51382)
(0.0425523 0.150755 1.52258)
(0.0143339 0.153204 1.52687)
(-0.0143345 0.153204 1.52687)
(-0.0425528 0.150755 1.52258)
(-0.0694671 0.145965 1.51382)
(-0.0942356 0.139045 1.5003)
(-0.115143 0.131416 1.48099)
(0.000701969 0.000923493 0.139012)
(0.000547442 0.00115817 0.145876)
(0.000374069 0.00132411 0.151463)
(0.000231448 0.00142197 0.155384)
(7.74113e-05 0.00147079 0.157406)
(-7.74397e-05 0.00147079 0.157406)
(-0.000231476 0.00142197 0.155384)
(-0.000374096 0.0013241 0.151463)
(-0.000547468 0.00115816 0.145876)
(-0.000701991 0.000923474 0.139012)
(0.00687067 0.00822175 0.398545)
(0.00596142 0.0101343 0.41675)
(0.00458122 0.0117877 0.431481)
(0.00292131 0.0129733 0.441788)
(0.00100301 0.0136036 0.447091)
(-0.0010031 0.0136036 0.447091)
(-0.00292139 0.0129733 0.441788)
(-0.0045813 0.0117877 0.431481)
(-0.0059615 0.0101342 0.41675)
(-0.00687074 0.0082217 0.398545)
(0.0168049 0.0198538 0.633222)
(0.0146494 0.0241684 0.660047)
(0.0113309 0.0279523 0.68158)
(0.00721552 0.0306966 0.696581)
(0.00247738 0.0321555 0.704277)
(-0.00247752 0.0321555 0.704277)
(-0.00721566 0.0306965 0.696581)
(-0.011331 0.0279523 0.68158)
(-0.0146495 0.0241683 0.660047)
(-0.016805 0.0198537 0.633222)
(0.0287593 0.0337829 0.840936)
(0.024987 0.0406241 0.873606)
(0.0193004 0.0466228 0.899574)
(0.012251 0.0509686 0.917569)
(0.00420026 0.0532718 0.926771)
(-0.00420047 0.0532718 0.926771)
(-0.0122512 0.0509686 0.917569)
(-0.0193006 0.0466228 0.899574)
(-0.0249872 0.040624 0.873605)
(-0.0287595 0.0337828 0.840936)
(0.0407262 0.0476261 1.02151)
(0.0351614 0.0565361 1.0575)
(0.0270472 0.064303 1.08579)
(0.017099 0.0699008 1.10527)
(0.00585103 0.0728544 1.11521)
(-0.00585129 0.0728544 1.11521)
(-0.0170993 0.0699007 1.10527)
(-0.0270475 0.0643029 1.08579)
(-0.0351616 0.056536 1.0575)
(-0.0407264 0.047626 1.0215)
(0.051261 0.059681 1.17602)
(0.0439143 0.0698717 1.21321)
(0.033598 0.07867 1.24209)
(0.0211456 0.0849678 1.26186)
(0.00721986 0.0882744 1.2719)
(-0.00722018 0.0882743 1.2719)
(-0.0211459 0.0849678 1.26186)
(-0.0335983 0.0786699 1.24209)
(-0.0439146 0.0698716 1.21321)
(-0.0512613 0.0596809 1.17602)
(0.0594258 0.068863 1.3063)
(0.0504675 0.0794075 1.343)
(0.0383764 0.088393 1.37115)
(0.0240393 0.0947758 1.3903)
(0.00818869 0.0981095 1.39998)
(-0.00818907 0.0981095 1.39998)
(-0.0240396 0.0947758 1.3903)
(-0.0383768 0.088393 1.37115)
(-0.0504678 0.0794074 1.343)
(-0.0594261 0.0688629 1.3063)
(0.0646753 0.0745445 1.41445)
(0.0544152 0.0845087 1.44944)
(0.0411095 0.092858 1.47596)
(0.0256255 0.0987401 1.49389)
(0.00870765 0.101796 1.50291)
(-0.00870809 0.101796 1.50291)
(-0.0256259 0.0987401 1.49389)
(-0.0411099 0.0928579 1.47596)
(-0.0544155 0.0845086 1.44944)
(-0.0646756 0.0745444 1.41445)
(0.0668506 0.0765072 1.50261)
(0.055707 0.0850584 1.53521)
(0.0417864 0.0920222 1.55961)
(0.0259071 0.0968943 1.57595)
(0.00877943 0.0994118 1.58412)
(-0.00877992 0.0994118 1.58412)
(-0.0259076 0.0968942 1.57595)
(-0.0417868 0.0920222 1.55961)
(-0.0557074 0.0850584 1.53521)
(-0.066851 0.0765071 1.50261)
(0.0661583 0.0755246 1.57268)
(0.0545608 0.0811535 1.60318)
(0.0405138 0.0860515 1.62515)
(0.0249527 0.0894478 1.63966)
(0.00842829 0.0911898 1.64685)
(-0.00842881 0.0911898 1.64685)
(-0.0249532 0.0894478 1.63965)
(-0.0405143 0.0860514 1.62515)
(-0.0545612 0.0811535 1.60318)
(-0.0661587 0.0755245 1.57268)
(0.000122322 0.000132974 0.128445)
(0.000113798 0.000174971 0.134862)
(8.39181e-05 0.0002185 0.140075)
(5.73495e-05 0.000248992 0.143739)
(1.97856e-05 0.000266245 0.14563)
(-1.98084e-05 0.000266244 0.14563)
(-5.7372e-05 0.000248987 0.143739)
(-8.394e-05 0.000218492 0.140075)
(-0.000113819 0.000174958 0.134862)
(-0.00012234 0.000132959 0.128445)
(0.00238391 0.00275699 0.372324)
(0.00213245 0.00341887 0.389754)
(0.00166971 0.00402955 0.403865)
(0.00107875 0.00448368 0.413762)
(0.000372403 0.00473006 0.418862)
(-0.000372473 0.00473006 0.418862)
(-0.00107882 0.00448366 0.413762)
(-0.00166978 0.00402953 0.403865)
(-0.00213252 0.00341884 0.389754)
(-0.00238397 0.00275695 0.372324)
(0.00649018 0.0075304 0.597982)
(0.00576449 0.00923072 0.624363)
(0.00451644 0.0107759 0.6456)
(0.00290133 0.0119247 0.660452)
(0.0010001 0.0125436 0.668089)
(-0.00100021 0.0125436 0.668089)
(-0.00290145 0.0119247 0.660452)
(-0.00451655 0.0107758 0.6456)
(-0.00576459 0.00923067 0.624362)
(-0.00649027 0.00753034 0.597982)
(0.0118932 0.0138036 0.803679)
(0.0104916 0.0167311 0.836829)
(0.00819517 0.0193653 0.863322)
(0.00524173 0.0213135 0.881776)
(0.00180364 0.0223576 0.891244)
(-0.00180381 0.0223576 0.891244)
(-0.0052419 0.0213134 0.881776)
(-0.00819532 0.0193652 0.863322)
(-0.0104918 0.016731 0.836829)
(-0.0118933 0.0138035 0.803679)
(0.0177502 0.02057 0.988508)
(0.0155419 0.0246329 1.02628)
(0.012084 0.0282534 1.05621)
(0.00769577 0.0309127 1.07696)
(0.00264279 0.0323308 1.08758)
(-0.002643 0.0323308 1.08758)
(-0.00769598 0.0309127 1.07696)
(-0.0120842 0.0282534 1.05621)
(-0.0155421 0.0246328 1.02628)
(-0.0177504 0.0205699 0.988507)
(0.0233275 0.0269584 1.15226)
(0.0202593 0.0318567 1.19266)
(0.0156644 0.0361736 1.22436)
(0.00993089 0.0393199 1.24624)
(0.00340291 0.0409889 1.25739)
(-0.00340318 0.0409889 1.25739)
(-0.00993115 0.0393199 1.24624)
(-0.0156646 0.0361735 1.22436)
(-0.0202596 0.0318567 1.19266)
(-0.0233277 0.0269583 1.15226)
(0.0280466 0.0322914 1.29526)
(0.0241427 0.0375945 1.33653)
(0.018551 0.042206 1.36858)
(0.0117048 0.0455392 1.39058)
(0.00400134 0.0472977 1.40177)
(-0.00400165 0.0472977 1.40177)
(-0.0117051 0.0455392 1.39058)
(-0.0185513 0.042206 1.36858)
(-0.0241429 0.0375944 1.33653)
(-0.0280468 0.0322913 1.29526)
(0.0314902 0.03608 1.41816)
(0.0268513 0.0412986 1.45885)
(0.0204934 0.0457623 1.49013)
(0.0128648 0.0489591 1.51148)
(0.00438668 0.0506357 1.5223)
(-0.00438703 0.0506357 1.5223)
(-0.0128651 0.0489591 1.51148)
(-0.0204937 0.0457623 1.49013)
(-0.0268516 0.0412985 1.45885)
(-0.0314904 0.03608 1.41816)
(0.0334426 0.0380539 1.52174)
(0.0282307 0.0427127 1.5609)
(0.0213811 0.046585 1.59065)
(0.013344 0.0493314 1.61078)
(0.00453664 0.0507618 1.62092)
(-0.00453703 0.0507618 1.62092)
(-0.0133443 0.0493314 1.61078)
(-0.0213814 0.046585 1.59065)
(-0.028231 0.0427127 1.5609)
(-0.0334429 0.0380539 1.52174)
(0.0338957 0.0385092 1.60668)
(0.0282691 0.0417744 1.64447)
(0.021174 0.0446029 1.67211)
(0.0131183 0.0465813 1.69054)
(0.00444361 0.0476018 1.69975)
(-0.00444402 0.0476018 1.69975)
(-0.0131186 0.0465813 1.69054)
(-0.0211744 0.0446029 1.67211)
(-0.0282694 0.0417744 1.64447)
(-0.033896 0.0385091 1.60668)
(7.46904e-05 0.000101395 0.125724)
(5.16775e-05 0.000128752 0.131955)
(3.11304e-05 0.00014438 0.136986)
(1.87729e-05 0.000151871 0.140516)
(6.04975e-06 0.000155376 0.142335)
(-6.06748e-06 0.000155375 0.142335)
(-1.87905e-05 0.000151867 0.140516)
(-3.11476e-05 0.000144373 0.136986)
(-5.16937e-05 0.000128743 0.131955)
(-7.47049e-05 0.000101384 0.125724)
(0.000957402 0.0011457 0.36451)
(0.000820083 0.00142152 0.381525)
(0.00062558 0.00165287 0.395241)
(0.000398827 0.00181831 0.404851)
(0.000136787 0.00190656 0.4098)
(-0.000136841 0.00190656 0.4098)
(-0.000398881 0.0018183 0.404851)
(-0.000625632 0.00165285 0.395241)
(-0.000820131 0.00142149 0.381525)
(-0.000957444 0.00114567 0.36451)
(0.00263535 0.0031062 0.586579)
(0.00229755 0.00382068 0.612562)
(0.00178127 0.00444296 0.633426)
(0.00113854 0.00489876 0.648012)
(0.000391551 0.00514288 0.655513)
(-0.000391642 0.00514288 0.655512)
(-0.00113863 0.00489874 0.648012)
(-0.00178136 0.00444293 0.633426)
(-0.00229763 0.00382065 0.612562)
(-0.00263542 0.00310615 0.586579)
(0.00493248 0.00577641 0.790932)
(0.00431355 0.0070401 0.823987)
(0.00335549 0.00815227 0.85038)
(0.00214315 0.00897045 0.868778)
(0.000737043 0.00940834 0.878222)
(-0.000737172 0.00940833 0.878222)
(-0.00214327 0.00897043 0.868778)
(-0.00335561 0.00815224 0.85038)
(-0.00431366 0.00704006 0.823987)
(-0.00493258 0.00577635 0.790932)
(0.00754468 0.00879391 0.976876)
(0.00658337 0.0106046 1.01509)
(0.00511496 0.0121985 1.0454)
(0.00325927 0.0133687 1.06645)
(0.00111973 0.0139933 1.07723)
(-0.0011199 0.0139933 1.07723)
(-0.00325943 0.0133687 1.06645)
(-0.00511512 0.0121985 1.0454)
(-0.00658352 0.0106045 1.01509)
(-0.0075448 0.00879384 0.976875)
(0.0101645 0.0117947 1.14404)
(0.00882503 0.0140494 1.18558)
(0.00683235 0.0160233 1.21824)
(0.00433905 0.0174651 1.24084)
(0.00148829 0.0182317 1.25239)
(-0.00148849 0.0182317 1.25239)
(-0.00433925 0.0174651 1.24084)
(-0.00683254 0.0160233 1.21824)
(-0.0088252 0.0140494 1.18558)
(-0.0101647 0.0117946 1.14404)
(0.0125113 0.0144496 1.29235)
(0.0107881 0.0169682 1.33548)
(0.00831054 0.0191513 1.36911)
(0.00525637 0.0207351 1.39228)
(0.00179928 0.021573 1.40409)
(-0.00179952 0.021573 1.40409)
(-0.0052566 0.020735 1.39228)
(-0.00831076 0.0191513 1.36911)
(-0.0107883 0.0169682 1.33548)
(-0.0125115 0.0144496 1.29235)
(0.0143521 0.0164841 1.42191)
(0.0122744 0.0190385 1.46515)
(0.00939875 0.0212218 1.49857)
(0.00591681 0.0227921 1.52149)
(0.00202054 0.0236182 1.53312)
(-0.00202081 0.0236182 1.53312)
(-0.00591708 0.022792 1.52149)
(-0.009399 0.0212218 1.49857)
(-0.0122747 0.0190384 1.46514)
(-0.0143523 0.016484 1.42191)
(0.0155367 0.0177102 1.53287)
(0.0131649 0.0200614 1.57518)
(0.010007 0.0220184 1.60754)
(0.00626396 0.0234117 1.62953)
(0.00213285 0.0241393 1.64064)
(-0.00213315 0.0241393 1.64064)
(-0.00626424 0.0234117 1.62953)
(-0.0100073 0.0220184 1.60754)
(-0.0131651 0.0200613 1.57518)
(-0.0155369 0.0177101 1.53287)
(0.0160151 0.0182206 1.62528)
(0.0134077 0.0199444 1.66678)
(0.0100808 0.0214237 1.69734)
(0.00626389 0.0224614 1.71782)
(0.00212493 0.0229979 1.72808)
(-0.00212523 0.0229979 1.72808)
(-0.00626419 0.0224614 1.71782)
(-0.0100811 0.0214237 1.69734)
(-0.0134079 0.0199444 1.66677)
(-0.0160154 0.0182206 1.62527)
(9.72442e-06 1.18742e-05 0.12437)
(6.38166e-06 1.65744e-05 0.130541)
(3.27259e-06 1.96714e-05 0.13552)
(2.45477e-06 2.1403e-05 0.139015)
(8.07964e-07 2.24022e-05 0.140816)
(-8.21328e-07 2.24012e-05 0.140816)
(-2.46789e-06 2.14e-05 0.139015)
(-3.2854e-06 1.96664e-05 0.13552)
(-6.3939e-06 1.65672e-05 0.130541)
(-9.73501e-06 1.18653e-05 0.12437)
(0.000315577 0.000368719 0.360685)
(0.000275169 0.000460823 0.377548)
(0.000212788 0.000541257 0.391134)
(0.000137227 0.000600586 0.400656)
(4.72915e-05 0.000632789 0.40556)
(-4.7332e-05 0.000632786 0.40556)
(-0.000137267 0.000600578 0.400656)
(-0.000212826 0.000541243 0.391134)
(-0.000275206 0.000460804 0.377547)
(-0.000315609 0.000368695 0.360684)
(0.000948514 0.00110402 0.580867)
(0.000835874 0.00136622 0.606685)
(0.000653722 0.00159956 0.627412)
(0.000420578 0.00177364 0.64191)
(0.000145068 0.00186781 0.649367)
(-0.000145135 0.00186781 0.649367)
(-0.000420645 0.00177363 0.64191)
(-0.000653786 0.00159953 0.627412)
(-0.000835934 0.00136619 0.606684)
(-0.000948566 0.00110399 0.580866)
(0.00186358 0.00216376 0.784216)
(0.00164407 0.00265301 0.817204)
(0.00128826 0.00309025 0.843553)
(0.000827159 0.00341659 0.861936)
(0.000285177 0.00359263 0.871376)
(-0.000285273 0.00359262 0.871376)
(-0.000827253 0.00341657 0.861936)
(-0.00128835 0.00309023 0.843553)
(-0.00164415 0.00265297 0.817203)
(-0.00186366 0.00216372 0.784215)
(0.00295158 0.003417 0.970191)
(0.00259685 0.00414631 1.00855)
(0.00203166 0.00479688 1.039)
(0.00130102 0.00528073 1.06017)
(0.000448045 0.00554086 1.07103)
(-0.000448167 0.00554085 1.07103)
(-0.00130114 0.00528071 1.06017)
(-0.00203177 0.00479685 1.039)
(-0.00259696 0.00414627 1.00855)
(-0.00295167 0.00341695 0.970191)
(0.00408921 0.00471729 1.13844)
(0.00357987 0.00565556 1.18041)
(0.00279081 0.00648742 1.21347)
(0.00178115 0.00710263 1.23639)
(0.00061241 0.007432 1.24811)
(-0.000612559 0.007432 1.24811)
(-0.00178129 0.00710261 1.23639)
(-0.00279095 0.00648739 1.21347)
(-0.00358 0.00565552 1.18041)
(-0.00408933 0.00471724 1.13844)
(0.00515339 0.00591981 1.28876)
(0.00448146 0.00699789 1.33267)
(0.0034765 0.00794439 1.367)
(0.00220979 0.00863933 1.39069)
(0.000758266 0.00900953 1.40278)
(-0.00075844 0.00900953 1.40278)
(-0.00220996 0.00863931 1.39069)
(-0.00347666 0.00794436 1.36699)
(-0.00448161 0.00699785 1.33267)
(-0.00515352 0.00591976 1.28876)
(0.00603325 0.00689368 1.42109)
(0.00520482 0.00801534 1.46545)
(0.00401334 0.00898669 1.49986)
(0.00253892 0.00969325 1.5235)
(0.000869095 0.0100674 1.53552)
(-0.000869291 0.0100674 1.53552)
(-0.00253911 0.00969324 1.5235)
(-0.00401352 0.00898667 1.49986)
(-0.00520499 0.00801531 1.46545)
(-0.00603339 0.00689364 1.42108)
(0.00665008 0.00754182 1.5353)
(0.00568345 0.00860016 1.57906)
(0.00434918 0.00949212 1.61265)
(0.00273505 0.0101332 1.63555)
(0.00093337 0.0104698 1.64712)
(-0.000933584 0.0104698 1.64712)
(-0.00273526 0.0101332 1.63555)
(-0.00434938 0.0094921 1.61265)
(-0.00568363 0.00860013 1.57906)
(-0.00665024 0.00754179 1.5353)
(0.00696654 0.00789344 1.63114)
(0.00587626 0.00869747 1.67441)
(0.00444523 0.00938635 1.7064)
(0.0027736 0.00987267 1.7279)
(0.000942777 0.0101251 1.73868)
(-0.000943002 0.0101251 1.73868)
(-0.00277381 0.00987267 1.7279)
(-0.00444544 0.00938634 1.7064)
(-0.00587645 0.00869746 1.67441)
(-0.0069667 0.00789342 1.63114)
(6.69901e-06 1.09134e-05 0.124046)
(2.50874e-06 1.42733e-05 0.130194)
(1.76227e-07 1.51882e-05 0.135149)
(-1.78022e-07 1.51037e-05 0.138627)
(-1.47041e-07 1.49465e-05 0.140419)
(1.37225e-07 1.49458e-05 0.140419)
(1.68488e-07 1.51015e-05 0.138627)
(-1.85647e-07 1.51845e-05 0.135149)
(-2.5175e-06 1.42679e-05 0.130194)
(-6.70642e-06 1.09073e-05 0.124046)
(0.000116963 0.000142982 0.359601)
(9.6052e-05 0.000178987 0.376397)
(7.14367e-05 0.000206961 0.389918)
(4.51111e-05 0.000226449 0.399392)
(1.53798e-05 0.000236751 0.40427)
(-1.54093e-05 0.000236749 0.40427)
(-4.51399e-05 0.000226443 0.399392)
(-7.14649e-05 0.000206951 0.389918)
(-9.6078e-05 0.000178973 0.376397)
(-0.000116985 0.000142965 0.359601)
(0.000353146 0.000419184 0.579113)
(0.00030367 0.000520421 0.604846)
(0.000233949 0.000606176 0.625492)
(0.000149317 0.000668866 0.639932)
(5.13005e-05 0.000702471 0.647358)
(-5.13499e-05 0.000702468 0.647358)
(-0.000149364 0.000668857 0.639932)
(-0.000233996 0.000606161 0.625492)
(-0.000303714 0.000520401 0.604846)
(-0.000353183 0.000419159 0.579113)
(0.000704135 0.000826371 0.782051)
(0.000613744 0.00101782 0.81498)
(0.000477591 0.00118457 0.841274)
(0.000305609 0.00130794 0.859618)
(0.000105196 0.00137426 0.86904)
(-0.000105265 0.00137426 0.86904)
(-0.000305676 0.00130792 0.859618)
(-0.000477655 0.00118455 0.841273)
(-0.000613805 0.00101779 0.81498)
(-0.000704187 0.00082634 0.782051)
(0.00113525 0.00132313 0.967983)
(0.000992808 0.00161425 1.00636)
(0.000774406 0.00187016 1.03682)
(0.000495364 0.00205986 1.05801)
(0.000170515 0.00216176 1.06888)
(-0.000170603 0.00216175 1.06888)
(-0.00049545 0.00205985 1.05801)
(-0.000774488 0.00187014 1.03682)
(-0.000992885 0.00161422 1.00636)
(-0.00113532 0.0013231 0.967983)
(0.00160148 0.00185611 1.1366)
(0.00139835 0.00223875 1.17871)
(0.00108932 0.00257509 1.2119)
(0.000695375 0.0028237 1.23491)
(0.000239132 0.00295687 1.24668)
(-0.000239239 0.00295687 1.24668)
(-0.000695479 0.00282369 1.23491)
(-0.00108942 0.00257507 1.2119)
(-0.00139844 0.00223872 1.17871)
(-0.00160156 0.00185608 1.1366)
(0.00205305 0.00236676 1.2877)
(0.00178448 0.00281588 1.3319)
(0.00138517 0.00320822 1.36648)
(0.000881362 0.00349658 1.39036)
(0.000302598 0.00365038 1.40256)
(-0.000302722 0.00365037 1.40256)
(-0.000881483 0.00349656 1.39036)
(-0.00138529 0.0032082 1.36647)
(-0.00178459 0.00281585 1.3319)
(-0.00205314 0.00236673 1.2877)
(0.00244142 0.00279757 1.42115)
(0.00210803 0.00327465 1.46597)
(0.00162785 0.00368678 1.50077)
(0.00103134 0.00398708 1.5247)
(0.00035331 0.00414632 1.53687)
(-0.00035345 0.00414631 1.53687)
(-0.00103148 0.00398707 1.5247)
(-0.00162798 0.00368676 1.50076)
(-0.00210815 0.00327462 1.46597)
(-0.00244153 0.00279754 1.42115)
(0.00272886 0.00310168 1.53675)
(0.00233626 0.00356131 1.58112)
(0.0017913 0.00394853 1.61523)
(0.00112844 0.00422734 1.6385)
(0.000385427 0.00437394 1.65028)
(-0.00038558 0.00437394 1.65028)
(-0.00112859 0.00422733 1.6385)
(-0.00179144 0.00394852 1.61523)
(-0.00233639 0.00356129 1.58112)
(-0.00272898 0.00310166 1.53674)
(0.00289397 0.00328507 1.63409)
(0.00244602 0.00364409 1.67814)
(0.00185454 0.00395026 1.71075)
(0.00115925 0.00416676 1.73269)
(0.00039439 0.00427927 1.74371)
(-0.000394551 0.00427927 1.74371)
(-0.0011594 0.00416676 1.73269)
(-0.00185469 0.00395025 1.71075)
(-0.00244616 0.00364408 1.67813)
(-0.00289409 0.00328506 1.63409)
(-7.26701e-07 -2.77677e-07 0.1239)
(-1.56619e-06 6.02468e-08 0.13004)
(-1.67474e-06 -1.46448e-07 0.134989)
(-1.09986e-06 -4.60236e-07 0.138462)
(-3.98609e-07 -6.40636e-07 0.140252)
(3.91601e-07 -6.41169e-07 0.140252)
(1.09311e-06 -4.61832e-07 0.138462)
(1.6682e-06 -1.48981e-07 0.134989)
(1.56002e-06 5.66084e-08 0.13004)
(7.2172e-07 -2.81919e-07 0.1239)
(3.06577e-05 3.69937e-05 0.359128)
(2.4968e-05 4.72156e-05 0.3759)
(1.85475e-05 5.52344e-05 0.3894)
(1.17997e-05 6.09596e-05 0.398859)
(4.02754e-06 6.40335e-05 0.40373)
(-4.04852e-06 6.4032e-05 0.40373)
(-1.182e-05 6.09552e-05 0.398859)
(-1.85671e-05 5.52276e-05 0.389399)
(-2.49863e-05 4.72059e-05 0.3759)
(-3.06727e-05 3.69823e-05 0.359128)
(0.000107846 0.000126755 0.578339)
(9.31281e-05 0.000159302 0.604038)
(7.21599e-05 0.000187234 0.624655)
(4.6314e-05 0.000208016 0.639075)
(1.59464e-05 0.000219261 0.646491)
(-1.59814e-05 0.000219259 0.646491)
(-4.63477e-05 0.000208009 0.639075)
(-7.21923e-05 0.000187223 0.624655)
(-9.31589e-05 0.000159288 0.604038)
(-0.000107872 0.000126738 0.578339)
(0.000230565 0.000268464 0.781063)
(0.000202206 0.000333956 0.813965)
(0.000158349 0.000391659 0.840235)
(0.000101835 0.000434965 0.858565)
(3.51305e-05 0.000458425 0.867979)
(-3.51792e-05 0.000458422 0.867979)
(-0.000101882 0.000434957 0.858564)
(-0.000158394 0.000391645 0.840234)
(-0.000202249 0.000333938 0.813964)
(-0.000230601 0.000268443 0.781063)
(0.000388469 0.000449664 0.966915)
(0.000342072 0.000553471 1.00529)
(0.000268566 0.000645705 1.03575)
(0.000172627 0.000714951 1.05694)
(5.95543e-05 0.000752403 1.06781)
(-5.96165e-05 0.0007524 1.06781)
(-0.000172688 0.000714942 1.05694)
(-0.000268624 0.00064569 1.03575)
(-0.000342126 0.000553451 1.00529)
(-0.000388516 0.000449641 0.966914)
(0.000565835 0.000651686 1.13561)
(0.000497705 0.000792502 1.17776)
(0.000390294 0.000917575 1.21099)
(0.000250348 0.00101113 1.23404)
(8.62859e-05 0.00106157 1.24583)
(-8.6361e-05 0.00106157 1.24583)
(-0.000250421 0.00101112 1.23404)
(-0.000390363 0.000917559 1.21099)
(-0.00049777 0.000792481 1.17776)
(-0.000565893 0.000651661 1.13561)
(0.000743782 0.000852293 1.28696)
(0.000651464 0.00102188 1.33126)
(0.000509078 0.0011716 1.36593)
(0.000325467 0.00128286 1.38989)
(0.000111993 0.00134258 1.40212)
(-0.000112081 0.00134257 1.40212)
(-0.000325552 0.00128285 1.38989)
(-0.000509159 0.00117158 1.36593)
(-0.000651539 0.00102186 1.33126)
(-0.000743849 0.000852269 1.28696)
(0.000902793 0.00102838 1.42081)
(0.000785678 0.00121259 1.4658)
(0.000610727 0.00137339 1.50074)
(0.000388731 0.00149176 1.52479)
(0.000133459 0.00155488 1.53703)
(-0.000133557 0.00155487 1.53703)
(-0.000388827 0.00149175 1.52479)
(-0.000610818 0.00137338 1.50074)
(-0.000785763 0.00121257 1.46579)
(-0.000902869 0.00102836 1.42081)
(0.00102685 0.00116034 1.53692)
(0.000885946 0.00134157 1.58153)
(0.00068354 0.00149566 1.61585)
(0.000432459 0.00160751 1.63928)
(0.000148007 0.0016666 1.65114)
(-0.000148114 0.0016666 1.65114)
(-0.000432564 0.00160751 1.63928)
(-0.00068364 0.00149565 1.61585)
(-0.000886039 0.00134156 1.58153)
(-0.00102693 0.00116032 1.53692)
(0.00110559 0.00124942 1.63485)
(0.000940683 0.00139499 1.67921)
(0.000717225 0.00151877 1.71209)
(0.000450027 0.00160675 1.73421)
(0.000153371 0.00165262 1.74533)
(-0.000153484 0.00165262 1.74533)
(-0.000450138 0.00160675 1.73421)
(-0.000717331 0.00151877 1.71209)
(-0.000940783 0.00139498 1.67921)
(-0.00110568 0.0012494 1.63485)
(2.96864e-08 7.13333e-07 0.123881)
(-7.26957e-07 1.05665e-06 0.130019)
(-9.21245e-07 9.13262e-07 0.134965)
(-6.79379e-07 6.56568e-07 0.138436)
(-2.54595e-07 4.89851e-07 0.140225)
(2.4975e-07 4.89477e-07 0.140225)
(6.74694e-07 6.55469e-07 0.138436)
(9.16841e-07 9.11487e-07 0.134965)
(7.22936e-07 1.05427e-06 0.130019)
(-3.29963e-08 7.10604e-07 0.123881)
(8.79364e-06 1.17552e-05 0.359029)
(6.01202e-06 1.51891e-05 0.375791)
(3.86533e-06 1.72967e-05 0.389281)
(2.25453e-06 1.8578e-05 0.398734)
(7.30165e-07 1.92115e-05 0.4036)
(-7.44621e-07 1.92105e-05 0.4036)
(-2.26854e-06 1.8575e-05 0.398733)
(-3.87852e-06 1.72919e-05 0.389281)
(-6.02407e-06 1.51828e-05 0.375791)
(-8.80369e-06 1.17478e-05 0.359029)