/*--------------------------------*- C++ -*----------------------------------*\
| =========                 |                                                 |
| \\      /  F ield         | OpenFOAM: The Open Source CFD Toolbox           |
|  \\    /   O peration     | Version:  2106                                  |
|   \\  /    A nd           | Website:  www.openfoam.com                      |
|    \\/     M anipulation  |                                                 |
\*---------------------------------------------------------------------------*/
FoamFile
{
    version     2.0;
    format      ascii;
    arch        "LSB;label=32;scalar=64";
    class       volVectorField;
    location    "0.73";
    object      U;
}
// * * * * * * * * * * * * * * * * * * * * * * * * * * * * * * * * * * * * * //

dimensions      [0 1 -1 0 0 0 0];

internalField   nonuniform List<vector> 
10000
(
(0.0625664 0.0737244 0.345117)
(0.0533617 0.0838451 0.359597)
(0.0398513 0.0929969 0.370961)
(0.0247223 0.0993796 0.37881)
(0.00837827 0.10268 0.382799)
(-0.00837828 0.10268 0.382799)
(-0.0247223 0.0993796 0.37881)
(-0.0398513 0.0929969 0.370961)
(-0.0533617 0.0838451 0.359597)
(-0.0625664 0.0737244 0.345117)
(0.172072 0.204145 0.727869)
(0.145252 0.23139 0.747518)
(0.108439 0.255352 0.762158)
(0.0670917 0.27194 0.772055)
(0.0227104 0.280496 0.777004)
(-0.0227104 0.280496 0.777004)
(-0.0670918 0.27194 0.772055)
(-0.108439 0.255352 0.762158)
(-0.145252 0.23139 0.747518)
(-0.172072 0.204145 0.727869)
(0.222653 0.26438 0.923784)
(0.185844 0.296093 0.939611)
(0.137859 0.323784 0.950674)
(0.084872 0.342729 0.957977)
(0.0286584 0.352437 0.961559)
(-0.0286584 0.352437 0.961559)
(-0.084872 0.342729 0.957977)
(-0.137859 0.323784 0.950674)
(-0.185844 0.296093 0.939611)
(-0.222653 0.26438 0.923784)
(0.23768 0.281768 1.0229)
(0.196443 0.311652 1.0334)
(0.144821 0.3378 1.04007)
(0.0887458 0.355487 1.04433)
(0.0298986 0.364492 1.04637)
(-0.0298987 0.364492 1.04637)
(-0.0887459 0.355487 1.04433)
(-0.144821 0.3378 1.04007)
(-0.196443 0.311652 1.0334)
(-0.23768 0.281768 1.0229)
(0.235749 0.278982 1.07125)
(0.193248 0.304987 1.07721)
(0.141716 0.327878 1.08033)
(0.0864949 0.343229 1.08221)
(0.0290841 0.350997 1.08306)
(-0.0290842 0.350997 1.08306)
(-0.086495 0.343229 1.08221)
(-0.141717 0.327878 1.08033)
(-0.193248 0.304987 1.07721)
(-0.235749 0.278982 1.07125)
(0.224748 0.26548 1.09233)
(0.182837 0.286893 1.09491)
(0.133447 0.305894 1.09556)
(0.0811475 0.318562 1.09581)
(0.0272381 0.324936 1.09586)
(-0.0272382 0.324936 1.09586)
(-0.0811475 0.318562 1.09581)
(-0.133447 0.305894 1.09556)
(-0.182837 0.286893 1.09491)
(-0.224748 0.26548 1.09233)
(0.208418 0.245562 1.09894)
(0.168269 0.262143 1.09922)
(0.122264 0.277003 1.0983)
(0.0740869 0.286892 1.09754)
(0.0248264 0.291846 1.09711)
(-0.0248266 0.291846 1.09711)
(-0.074087 0.286892 1.09754)
(-0.122264 0.277003 1.0983)
(-0.168269 0.262143 1.09922)
(-0.208418 0.245562 1.09894)
(0.189088 0.221952 1.09825)
(0.151487 0.233745 1.09708)
(0.109606 0.244452 1.09528)
(0.0662008 0.251612 1.09397)
(0.0221488 0.255199 1.09328)
(-0.0221489 0.255199 1.09328)
(-0.0662009 0.251612 1.09397)
(-0.109607 0.244452 1.09528)
(-0.151487 0.233745 1.09708)
(-0.189089 0.221952 1.09825)
(0.168292 0.196439 1.09427)
(0.133864 0.20363 1.09221)
(0.096463 0.210309 1.08999)
(0.0580802 0.214906 1.08844)
(0.0194023 0.217229 1.08766)
(-0.0194025 0.217229 1.08766)
(-0.0580804 0.214906 1.08844)
(-0.0964632 0.210309 1.08999)
(-0.133864 0.20363 1.09221)
(-0.168292 0.196439 1.09427)
(0.14719 0.170672 1.08922)
(0.116599 0.171773 1.0867)
(0.0834401 0.175053 1.08434)
(0.0500539 0.177443 1.08275)
(0.0166914 0.178672 1.08195)
(-0.0166915 0.178672 1.08195)
(-0.0500541 0.177443 1.08275)
(-0.0834402 0.175053 1.08434)
(-0.116599 0.171773 1.0867)
(-0.14719 0.170672 1.08922)
(0.0111961 0.0143016 0.266535)
(0.00940627 0.0175926 0.278798)
(0.00710254 0.0202362 0.288839)
(0.00449613 0.0220486 0.295829)
(0.00153835 0.0229928 0.299407)
(-0.00153837 0.0229928 0.299407)
(-0.00449615 0.0220486 0.295829)
(-0.00710256 0.0202362 0.288839)
(-0.00940628 0.0175926 0.278798)
(-0.0111961 0.0143016 0.266535)
(0.0544223 0.0658483 0.629536)
(0.0467322 0.0792242 0.651481)
(0.0357655 0.0906858 0.66908)
(0.0226111 0.0988071 0.681184)
(0.00773773 0.10307 0.687327)
(-0.00773778 0.10307 0.687327)
(-0.0226112 0.0988071 0.681184)
(-0.0357655 0.0906858 0.66908)
(-0.0467322 0.0792242 0.651481)
(-0.0544223 0.0658483 0.629536)
(0.0977974 0.116812 0.876503)
(0.0834392 0.138153 0.900326)
(0.0635225 0.156468 0.919011)
(0.0399189 0.169394 0.931706)
(0.0136201 0.176145 0.938099)
(-0.0136202 0.176145 0.938099)
(-0.039919 0.169394 0.931706)
(-0.0635226 0.156468 0.919011)
(-0.0834393 0.138153 0.900326)
(-0.0977975 0.116812 0.876503)
(0.133889 0.158745 1.04427)
(0.113263 0.184882 1.06627)
(0.0856741 0.207207 1.08311)
(0.0535345 0.22285 1.09441)
(0.0182139 0.230975 1.10005)
(-0.018214 0.230975 1.10005)
(-0.0535346 0.22285 1.09441)
(-0.0856742 0.207207 1.08311)
(-0.113264 0.184882 1.06627)
(-0.13389 0.158745 1.04427)
(0.159736 0.188313 1.15732)
(0.133973 0.216189 1.17594)
(0.100705 0.239839 1.18981)
(0.0626033 0.256293 1.199)
(0.0212447 0.264791 1.20355)
(-0.0212448 0.264791 1.20355)
(-0.0626035 0.256292 1.199)
(-0.100705 0.239839 1.18981)
(-0.133974 0.216189 1.17594)
(-0.159736 0.188313 1.15732)
(0.17538 0.205688 1.23238)
(0.145852 0.232816 1.2472)
(0.108974 0.255632 1.25792)
(0.0674207 0.271398 1.26492)
(0.0228251 0.279498 1.26835)
(-0.0228253 0.279498 1.26835)
(-0.0674209 0.271398 1.26492)
(-0.108974 0.255632 1.25792)
(-0.145852 0.232816 1.2472)
(-0.17538 0.205688 1.23238)
(0.18188 0.212211 1.28126)
(0.149967 0.236691 1.2925)
(0.111393 0.257038 1.30035)
(0.0686067 0.271014 1.30539)
(0.0231746 0.278161 1.30784)
(-0.0231748 0.278161 1.30784)
(-0.068607 0.271014 1.30539)
(-0.111393 0.257038 1.30035)
(-0.149967 0.236691 1.2925)
(-0.18188 0.212211 1.28126)
(0.180575 0.209514 1.31231)
(0.147604 0.229964 1.32046)
(0.109017 0.246687 1.32593)
(0.0668572 0.258119 1.32938)
(0.0225357 0.263947 1.33103)
(-0.022536 0.263947 1.33103)
(-0.0668575 0.258119 1.32938)
(-0.109017 0.246687 1.32593)
(-0.147604 0.229964 1.32046)
(-0.180575 0.209513 1.31231)
(0.172923 0.199267 1.33138)
(0.140179 0.214756 1.33704)
(0.102948 0.227062 1.34068)
(0.0628655 0.235494 1.3429)
(0.0211453 0.239788 1.34394)
(-0.0211456 0.239788 1.34394)
(-0.0628658 0.235494 1.3429)
(-0.102948 0.227062 1.34068)
(-0.140179 0.214756 1.33704)
(-0.172924 0.199267 1.33138)
(0.160492 0.18428 1.34256)
(0.129238 0.192214 1.34639)
(0.0941354 0.199755 1.34866)
(0.0571951 0.204957 1.34998)
(0.0191908 0.207604 1.35057)
(-0.0191911 0.207604 1.35057)
(-0.0571954 0.204957 1.34998)
(-0.0941357 0.199755 1.34866)
(-0.129238 0.192214 1.34639)
(-0.160492 0.18428 1.34256)
(0.00112213 0.00125316 0.157638)
(0.00113328 0.00160028 0.165937)
(0.000883424 0.0020085 0.172867)
(0.000591352 0.00231086 0.177773)
(0.00020606 0.00247841 0.180312)
(-0.00020608 0.00247841 0.180312)
(-0.000591371 0.00231086 0.177773)
(-0.000883441 0.00200849 0.172867)
(-0.00113329 0.00160028 0.165937)
(-0.00112214 0.00125315 0.157638)
(0.018021 0.0209112 0.441629)
(0.0162064 0.0255117 0.461831)
(0.0126839 0.0298408 0.478422)
(0.00814634 0.0330383 0.490066)
(0.00280706 0.034756 0.49606)
(-0.00280712 0.034756 0.49606)
(-0.0081464 0.0330383 0.490066)
(-0.0126839 0.0298408 0.478422)
(-0.0162065 0.0255116 0.461831)
(-0.0180211 0.0209112 0.441629)
(0.0410795 0.0478159 0.685198)
(0.0362818 0.0574472 0.712775)
(0.0281872 0.0662322 0.73506)
(0.0179556 0.072656 0.750572)
(0.00616497 0.0760769 0.758516)
(-0.00616508 0.0760769 0.758516)
(-0.0179557 0.0726559 0.750572)
(-0.0281872 0.0662321 0.73506)
(-0.0362819 0.0574471 0.712774)
(-0.0410796 0.0478159 0.685198)
(0.0659591 0.0768365 0.887816)
(0.0574927 0.0910194 0.918996)
(0.0443363 0.103709 0.943775)
(0.0280622 0.11289 0.960877)
(0.00960587 0.117745 0.969591)
(-0.00960602 0.117745 0.969591)
(-0.0280624 0.11289 0.960877)
(-0.0443365 0.103709 0.943775)
(-0.0574928 0.0910194 0.918996)
(-0.0659592 0.0768365 0.887815)
(0.0881872 0.102613 1.05291)
(0.0759959 0.11988 1.08491)
(0.05819 0.135101 1.10991)
(0.036624 0.146008 1.12702)
(0.0125026 0.151737 1.13569)
(-0.0125028 0.151737 1.13569)
(-0.0366242 0.146008 1.12702)
(-0.0581902 0.135101 1.10991)
(-0.075996 0.11988 1.08491)
(-0.0881873 0.102613 1.05291)
(0.105521 0.122465 1.18539)
(0.0899802 0.141064 1.21633)
(0.0684268 0.157236 1.24009)
(0.0428429 0.168722 1.25621)
(0.0145885 0.174719 1.26435)
(-0.0145887 0.174719 1.26435)
(-0.0428431 0.168721 1.25621)
(-0.0684271 0.157236 1.24009)
(-0.0899803 0.141064 1.21633)
(-0.105521 0.122465 1.18539)
(0.117108 0.135424 1.29039)
(0.0988482 0.153669 1.31911)
(0.0746667 0.169297 1.34081)
(0.0465172 0.180307 1.35542)
(0.015801 0.186025 1.36276)
(-0.0158013 0.186025 1.36276)
(-0.0465174 0.180307 1.35542)
(-0.074667 0.169297 1.34081)
(-0.0988484 0.153669 1.31911)
(-0.117108 0.135424 1.29039)
(0.122825 0.141379 1.37266)
(0.102632 0.157792 1.39858)
(0.0770109 0.171603 1.41787)
(0.0477445 0.181261 1.43076)
(0.0161788 0.186252 1.4372)
(-0.0161792 0.186252 1.4372)
(-0.0477448 0.181261 1.43076)
(-0.0770112 0.171603 1.41787)
(-0.102632 0.157792 1.39858)
(-0.122826 0.141379 1.37266)
(0.12307 0.140766 1.43633)
(0.101823 0.154167 1.45933)
(0.0758742 0.165116 1.47619)
(0.0467979 0.17274 1.48734)
(0.0158175 0.176664 1.49288)
(-0.0158178 0.176664 1.49288)
(-0.0467982 0.17274 1.48734)
(-0.0758745 0.165116 1.47619)
(-0.101824 0.154167 1.45933)
(-0.12307 0.140766 1.43633)
(0.118661 0.135399 1.48474)
(0.0972167 0.143455 1.50531)
(0.0717282 0.150741 1.51983)
(0.0439662 0.155789 1.5293)
(0.0148151 0.158372 1.53397)
(-0.0148155 0.158372 1.53397)
(-0.0439666 0.155789 1.5293)
(-0.0717285 0.150741 1.51983)
(-0.0972171 0.143455 1.50531)
(-0.118661 0.135399 1.48474)
(0.000713438 0.000936959 0.137892)
(0.000557676 0.00117481 0.144699)
(0.00038194 0.0013435 0.150241)
(0.000236875 0.00144335 0.154132)
(7.93211e-05 0.00149333 0.156139)
(-7.93395e-05 0.00149333 0.156139)
(-0.000236892 0.00144335 0.154132)
(-0.000381956 0.0013435 0.150241)
(-0.00055769 0.0011748 0.144699)
(-0.000713449 0.00093695 0.137892)
(0.00704308 0.00842135 0.395391)
(0.00611615 0.0103801 0.413455)
(0.00470337 0.0120751 0.428079)
(0.00300079 0.0132919 0.438314)
(0.00103058 0.0139394 0.443582)
(-0.00103064 0.0139394 0.443582)
(-0.00300085 0.0132919 0.438314)
(-0.00470342 0.012075 0.428079)
(-0.0061162 0.0103801 0.413455)
(-0.00704312 0.00842132 0.395391)
(0.0172741 0.0203959 0.62851)
(0.0150696 0.0248335 0.655178)
(0.011663 0.0287282 0.676601)
(0.0074305 0.0315559 0.691532)
(0.00255179 0.0330602 0.699196)
(-0.0025519 0.0330602 0.699196)
(-0.0074306 0.0315559 0.691532)
(-0.0116631 0.0287282 0.676601)
(-0.0150697 0.0248335 0.655178)
(-0.0172741 0.0203959 0.62851)
(0.0296391 0.0347976 0.83534)
(0.0257724 0.0418622 0.86793)
(0.0199206 0.0480619 0.893864)
(0.0126511 0.0525586 0.911851)
(0.00433857 0.0549434 0.921055)
(-0.00433872 0.0549434 0.921055)
(-0.0126513 0.0525586 0.911851)
(-0.0199208 0.0480619 0.893864)
(-0.0257725 0.0418622 0.86793)
(-0.0296392 0.0347976 0.83534)
(0.0420867 0.0491912 1.01584)
(0.0363707 0.0584316 1.05193)
(0.0279997 0.0664947 1.08035)
(0.0177117 0.0723139 1.09996)
(0.0060625 0.075387 1.10996)
(-0.0060627 0.075387 1.10996)
(-0.0177119 0.0723139 1.09996)
(-0.0279999 0.0664947 1.08035)
(-0.0363708 0.0584316 1.05193)
(-0.0420868 0.0491912 1.01584)
(0.0531253 0.0618185 1.17117)
(0.045562 0.0724359 1.20874)
(0.0348908 0.0816143 1.23799)
(0.0219743 0.0881947 1.25806)
(0.00750543 0.091653 1.26826)
(-0.00750567 0.091653 1.26826)
(-0.0219745 0.0881947 1.25806)
(-0.034891 0.0816143 1.23799)
(-0.0455622 0.0724359 1.20874)
(-0.0531255 0.0618184 1.17117)
(0.0617686 0.0715385 1.30313)
(0.0525233 0.0825789 1.34057)
(0.0399811 0.0920018 1.36939)
(0.0250636 0.0987074 1.38907)
(0.00854095 0.102214 1.39903)
(-0.00854124 0.102214 1.39903)
(-0.0250639 0.0987074 1.38907)
(-0.0399814 0.0920018 1.36939)
(-0.0525235 0.0825788 1.34057)
(-0.0617688 0.0715384 1.30313)
(0.0674246 0.0776686 1.41375)
(0.0568067 0.0881572 1.44989)
(0.042964 0.0969626 1.47741)
(0.0268032 0.103178 1.49609)
(0.00911158 0.106411 1.50551)
(-0.00911191 0.106411 1.50551)
(-0.0268035 0.103178 1.49609)
(-0.0429643 0.0969626 1.47741)
(-0.056807 0.0881571 1.44989)
(-0.0674248 0.0776686 1.41375)
(0.0698971 0.0799449 1.50502)
(0.0583285 0.0890017 1.53918)
(0.0438014 0.0963918 1.56488)
(0.027178 0.101571 1.58218)
(0.00921385 0.10425 1.59086)
(-0.00921422 0.10425 1.59086)
(-0.0271784 0.101571 1.58218)
(-0.0438017 0.0963918 1.56488)
(-0.0583288 0.0890017 1.53918)
(-0.0698974 0.0799449 1.50502)
(0.0693667 0.0791563 1.57861)
(0.0572785 0.0851755 1.61106)
(0.0425751 0.090407 1.63457)
(0.0262414 0.0940384 1.65017)
(0.00886681 0.0959023 1.65794)
(-0.00886719 0.0959023 1.65794)
(-0.0262418 0.0940384 1.65017)
(-0.0425755 0.090407 1.63457)
(-0.0572788 0.0851755 1.61105)
(-0.069367 0.0791563 1.57861)
(0.000130454 0.000142666 0.126963)
(0.000120858 0.000186998 0.133305)
(8.93033e-05 0.000232428 0.138459)
(6.10928e-05 0.000264271 0.142084)
(2.10984e-05 0.000282325 0.143955)
(-2.11144e-05 0.000282324 0.143955)
(-6.11081e-05 0.000264267 0.142084)
(-8.93174e-05 0.000232422 0.138459)
(-0.000120871 0.000186991 0.133305)
(-0.000130465 0.000142658 0.126963)
(0.00251225 0.00290588 0.368185)
(0.00224713 0.00360247 0.385432)
(0.00176014 0.00424405 0.399404)
(0.00113761 0.00472142 0.409209)
(0.000392808 0.00498054 0.414261)
(-0.00039286 0.00498054 0.414261)
(-0.00113766 0.00472141 0.409209)
(-0.00176018 0.00424403 0.399404)
(-0.00224717 0.00360245 0.385432)
(-0.00251229 0.00290585 0.368185)
(0.00684363 0.00793914 0.59183)
(0.00608038 0.00973273 0.618009)
(0.00476603 0.0113616 0.639104)
(0.00306286 0.0125734 0.653866)
(0.001056 0.0132266 0.66146)
(-0.00105609 0.0132266 0.66146)
(-0.00306295 0.0125734 0.653866)
(-0.00476611 0.0113616 0.639104)
(-0.00608045 0.0097327 0.618009)
(-0.0068437 0.0079391 0.59183)
(0.0125608 0.0145739 0.796398)
(0.0110869 0.0176719 0.829449)
(0.00866518 0.0204592 0.855899)
(0.00554497 0.0225225 0.874344)
(0.00190847 0.0236289 0.883813)
(-0.0019086 0.0236289 0.883813)
(-0.0055451 0.0225224 0.874344)
(-0.0086653 0.0204592 0.855899)
(-0.011087 0.0176718 0.829449)
(-0.0125608 0.0145738 0.796398)
(0.0187881 0.0217641 0.981157)
(0.0164639 0.0260805 1.01907)
(0.0128102 0.0299282 1.04916)
(0.00816293 0.0327575 1.07007)
(0.00280406 0.0342674 1.08077)
(-0.00280424 0.0342674 1.08077)
(-0.0081631 0.0327575 1.07007)
(-0.0128103 0.0299282 1.04916)
(-0.016464 0.0260805 1.01907)
(-0.0187882 0.021764 0.981157)
(0.0247557 0.0285959 1.14598)
(0.0215212 0.0338232 1.18688)
(0.0166547 0.0384329 1.21907)
(0.0105658 0.0417973 1.24133)
(0.00362174 0.0435835 1.2527)
(-0.00362196 0.0435835 1.2527)
(-0.010566 0.0417973 1.24133)
(-0.0166549 0.0384329 1.21907)
(-0.0215214 0.0338231 1.18688)
(-0.0247558 0.0285959 1.14598)
(0.0298475 0.0343479 1.29118)
(0.0257229 0.0400347 1.33341)
(0.0197849 0.0449848 1.36633)
(0.0124927 0.0485682 1.38901)
(0.00427233 0.0504604 1.40056)
(-0.00427259 0.0504604 1.40056)
(-0.012493 0.0485682 1.38901)
(-0.0197852 0.0449848 1.36633)
(-0.0257232 0.0400347 1.33341)
(-0.0298477 0.0343478 1.29118)
(0.0336095 0.038488 1.4173)
(0.0286953 0.0441138 1.45946)
(0.0219239 0.0489319 1.49204)
(0.0137736 0.0523878 1.51437)
(0.00469843 0.0542021 1.5257)
(-0.00469873 0.0542021 1.5257)
(-0.0137739 0.0523878 1.51437)
(-0.0219242 0.0489319 1.49204)
(-0.0286955 0.0441138 1.45946)
(-0.0336097 0.038488 1.4173)
(0.0357968 0.0407099 1.52491)
(0.0302572 0.0457626 1.56607)
(0.0229396 0.0499672 1.59751)
(0.0143274 0.0529532 1.61888)
(0.00487285 0.0545096 1.62966)
(-0.00487317 0.0545096 1.62966)
(-0.0143277 0.0529532 1.61888)
(-0.0229399 0.0499672 1.59751)
(-0.0302575 0.0457626 1.56607)
(-0.035797 0.0407099 1.52491)
(0.0363805 0.0413208 1.6144)
(0.0303748 0.0448918 1.65469)
(0.0227721 0.0479812 1.68432)
(0.0141178 0.0501437 1.70417)
(0.0047838 0.0512598 1.71411)
(-0.00478414 0.0512598 1.71411)
(-0.0141181 0.0501437 1.70417)
(-0.0227724 0.0479812 1.68432)
(-0.0303751 0.0448918 1.65469)
(-0.0363807 0.0413208 1.61439)
(7.96157e-05 0.000107439 0.123999)
(5.57576e-05 0.00013629 0.130142)
(3.41924e-05 0.000153005 0.135104)
(2.09185e-05 0.000161269 0.138587)
(6.795e-06 0.000165226 0.140383)
(-6.80797e-06 0.000165225 0.140383)
(-2.09313e-05 0.000161266 0.138587)
(-3.42037e-05 0.000153001 0.135104)
(-5.57679e-05 0.000136284 0.130142)
(-7.96245e-05 0.000107431 0.123999)
(0.00103939 0.00124121 0.359696)
(0.000892866 0.00153951 0.376498)
(0.000682862 0.00179058 0.390052)
(0.0004361 0.00197081 0.399553)
(0.000149689 0.0020672 0.404447)
(-0.000149732 0.00206719 0.404447)
(-0.000436142 0.0019708 0.399553)
(-0.000682901 0.00179057 0.390052)
(-0.0008929 0.00153949 0.376498)
(-0.00103942 0.00124119 0.359696)
(0.00286463 0.00337181 0.579427)
(0.00250189 0.00414745 0.605176)
(0.00194258 0.00482427 0.625873)
(0.00124291 0.00532109 0.640354)
(0.000427659 0.00558757 0.647804)
(-0.000427736 0.00558757 0.647804)
(-0.00124298 0.00532108 0.640353)
(-0.00194264 0.00482426 0.625872)
(-0.00250195 0.00414743 0.605176)
(-0.00286469 0.00337178 0.579427)
(0.00536984 0.00628148 0.782469)
(0.00470301 0.00765796 0.815408)
(0.00366288 0.00887116 0.841749)
(0.00234147 0.00976525 0.860135)
(0.000805598 0.0102443 0.869579)
(-0.00080571 0.0102443 0.869579)
(-0.00234158 0.00976524 0.860135)
(-0.00366298 0.00887114 0.841749)
(-0.0047031 0.00765793 0.815408)
(-0.00536992 0.00628145 0.782469)
(0.00822984 0.00958258 0.968331)
(0.00719161 0.0115622 1.00671)
(0.0055941 0.0133074 1.0372)
(0.00356759 0.0145909 1.05843)
(0.00122618 0.0152767 1.06931)
(-0.00122633 0.0152767 1.06931)
(-0.00356773 0.0145909 1.05843)
(-0.00559424 0.0133074 1.0372)
(-0.00719174 0.0115622 1.00671)
(-0.00822994 0.00958254 0.968331)
(0.0111133 0.0128828 1.13674)
(0.00966325 0.0153582 1.17885)
(0.00749043 0.0175286 1.21208)
(0.00476116 0.0191169 1.23513)
(0.0016338 0.0199622 1.24692)
(-0.00163398 0.0199622 1.24692)
(-0.00476134 0.0191169 1.23513)
(-0.00749059 0.0175285 1.21208)
(-0.0096634 0.0153581 1.17885)
(-0.0111134 0.0128827 1.13674)
(0.0137141 0.0158233 1.2876)
(0.0118439 0.0186008 1.33184)
(0.00913543 0.0210126 1.36649)
(0.00578338 0.0227655 1.39044)
(0.00198059 0.023694 1.40267)
(-0.00198081 0.023694 1.40267)
(-0.00578359 0.0227655 1.39044)
(-0.00913563 0.0210125 1.36649)
(-0.0118441 0.0186008 1.33184)
(-0.0137143 0.0158232 1.2876)
(0.015774 0.0180997 1.4209)
(0.0135124 0.0209305 1.46585)
(0.0103599 0.0233545 1.50078)
(0.00652783 0.0251011 1.52482)
(0.00223021 0.026021 1.53705)
(-0.00223046 0.026021 1.53705)
(-0.00652807 0.0251011 1.52482)
(-0.0103601 0.0233545 1.50078)
(-0.0135126 0.0209304 1.46585)
(-0.0157742 0.0180997 1.4209)
(0.0171225 0.0194991 1.53654)
(0.0145312 0.022119 1.58118)
(0.0110588 0.0243031 1.6155)
(0.00692811 0.0258603 1.63893)
(0.00235998 0.0266743 1.65079)
(-0.00236026 0.0266743 1.65079)
(-0.00692838 0.0258603 1.63893)
(-0.011059 0.0243031 1.6155)
(-0.0145314 0.022119 1.58117)
(-0.0171227 0.0194991 1.53654)
(0.017695 0.0201209 1.63423)
(0.0148327 0.022055 1.67865)
(0.0111634 0.0237136 1.71153)
(0.0069415 0.024878 1.73365)
(0.00235563 0.0254802 1.74477)
(-0.00235592 0.0254802 1.74477)
(-0.00694178 0.024878 1.73365)
(-0.0111637 0.0237137 1.71153)
(-0.0148329 0.022055 1.67865)
(-0.0176952 0.0201209 1.63423)
(1.22238e-05 1.5035e-05 0.122502)
(8.32032e-06 2.05526e-05 0.128578)
(4.66611e-06 2.41761e-05 0.133482)
(3.43883e-06 2.62538e-05 0.136926)
(1.15273e-06 2.74607e-05 0.138702)
(-1.16273e-06 2.74599e-05 0.138702)
(-3.44853e-06 2.62516e-05 0.136926)
(-4.67508e-06 2.41726e-05 0.133482)
(-8.32857e-06 2.05479e-05 0.128578)
(-1.22305e-05 1.50294e-05 0.122502)
(0.000360977 0.00042179 0.355467)
(0.000315153 0.000526508 0.372099)
(0.000244112 0.000617867 0.385508)
(0.000157589 0.00068538 0.394911)
(5.43454e-05 0.000722068 0.399755)
(-5.43788e-05 0.000722066 0.399755)
(-0.000157621 0.000685374 0.394911)
(-0.000244143 0.000617858 0.385508)
(-0.000315181 0.000526495 0.372099)
(-0.000360999 0.000421774 0.355467)
(0.00107819 0.00125447 0.573106)
(0.000951026 0.00155165 0.598668)
(0.000744473 0.00181602 0.619213)
(0.000479285 0.00201348 0.633595)
(0.000165383 0.00212038 0.640996)
(-0.000165443 0.00212038 0.640996)
(-0.000479343 0.00201347 0.633595)
(-0.000744527 0.001816 0.619213)
(-0.000951075 0.00155163 0.598668)
(-0.00107823 0.00125445 0.573106)
(0.00211428 0.0024535 0.775024)
(0.00186695 0.00300815 0.807882)
(0.00146411 0.00350386 0.834172)
(0.000940641 0.00387421 0.852538)
(0.000324412 0.00407413 0.861978)
(-0.0003245 0.00407413 0.861978)
(-0.000940726 0.0038742 0.852538)
(-0.00146419 0.00350384 0.834172)
(-0.00186702 0.00300813 0.807882)
(-0.00211434 0.00245348 0.775023)
(0.00334843 0.003874 0.960899)
(0.00294899 0.00470239 0.999426)
(0.00230913 0.00544159 1.03008)
(0.00147965 0.00599197 1.05144)
(0.000509738 0.00628808 1.0624)
(-0.000509855 0.00628808 1.0624)
(-0.00147977 0.00599196 1.05144)
(-0.00230923 0.00544157 1.03008)
(-0.00294908 0.00470237 0.999425)
(-0.00334851 0.00387397 0.960899)
(0.00464352 0.00535311 1.13048)
(0.00406972 0.00642202 1.17308)
(0.00317565 0.00737027 1.20675)
(0.00202817 0.00807242 1.23015)
(0.000697594 0.00844864 1.24214)
(-0.00069774 0.00844863 1.24214)
(-0.00202831 0.00807241 1.23015)
(-0.00317578 0.00737025 1.20675)
(-0.00406984 0.006422 1.17308)
(-0.00464363 0.00535308 1.13048)
(0.00586128 0.00672826 1.28358)
(0.00510328 0.00796096 1.32869)
(0.0039628 0.00904408 1.36411)
(0.00252075 0.00984035 1.38865)
(0.000865293 0.0102649 1.4012)
(-0.000865467 0.0102649 1.4012)
(-0.00252092 0.00984034 1.38865)
(-0.00396296 0.00904407 1.36411)
(-0.00510342 0.00796094 1.32869)
(-0.0058614 0.00672824 1.28358)
(0.00687541 0.00785043 1.41996)
(0.00593884 0.00913833 1.46618)
(0.00458388 0.0102547 1.50222)
(0.00290196 0.0110677 1.52708)
(0.000993731 0.0114985 1.53975)
(-0.00099393 0.0114985 1.53975)
(-0.00290215 0.0110677 1.52708)
(-0.00458406 0.0102547 1.50222)
(-0.005939 0.00913831 1.46618)
(-0.00687556 0.00785041 1.41996)
(0.00759443 0.00860687 1.53926)
(0.00649821 0.00982795 1.58555)
(0.00497716 0.0108577 1.62127)
(0.003132 0.0115985 1.64573)
(0.00106919 0.0119877 1.65812)
(-0.00106941 0.0119877 1.65812)
(-0.00313222 0.0115985 1.64573)
(-0.00497736 0.0108577 1.62127)
(-0.00649839 0.00982794 1.58555)
(-0.00759459 0.00860686 1.53926)
(0.0079718 0.00903018 1.64086)
(0.0067302 0.00996298 1.6873)
(0.00509491 0.0107615 1.7218)
(0.00318065 0.0113253 1.74509)
(0.00108143 0.0116181 1.7568)
(-0.00108166 0.0116181 1.7568)
(-0.00318087 0.0113253 1.74509)
(-0.00509513 0.0107615 1.7218)
(-0.00673039 0.00996298 1.6873)
(-0.00797198 0.00903018 1.64086)
(7.73104e-06 1.2306e-05 0.122107)
(3.19719e-06 1.60535e-05 0.128156)
(6.19974e-07 1.71624e-05 0.133033)
(1.42001e-07 1.71842e-05 0.136457)
(-3.42674e-08 1.70928e-05 0.138222)
(2.68438e-08 1.70922e-05 0.138222)
(-1.49163e-07 1.71826e-05 0.136457)
(-6.26636e-07 1.71598e-05 0.133033)
(-3.20342e-06 1.605e-05 0.128156)
(-7.73612e-06 1.23018e-05 0.122107)
(0.000138572 0.000168404 0.354175)
(0.000114845 0.000210568 0.370729)
(8.60616e-05 0.000243756 0.384064)
(5.45973e-05 0.000267118 0.393414)
(1.86658e-05 0.000279543 0.39823)
(-1.86907e-05 0.000279542 0.39823)
(-5.46214e-05 0.000267114 0.393414)
(-8.60841e-05 0.000243749 0.384064)
(-0.000114866 0.000210558 0.370729)
(-0.000138589 0.000168393 0.354175)
(0.000416827 0.000493253 0.57103)
(0.000359931 0.000611985 0.596494)
(0.000278177 0.000713138 0.616948)
(0.000177909 0.000787427 0.631265)
(6.11962e-05 0.000827346 0.638632)
(-6.12411e-05 0.000827344 0.638632)
(-0.000177952 0.00078742 0.631265)
(-0.000278218 0.000713128 0.616947)
(-0.000359968 0.00061197 0.596494)
(-0.000416858 0.000493236 0.57103)
(0.000829648 0.000971601 0.772465)
(0.000725082 0.00119636 0.805256)
(0.000565375 0.0013928 0.831484)
(0.000362274 0.00153856 0.849808)
(0.000124792 0.00161705 0.859227)
(-0.000124858 0.00161705 0.859227)
(-0.000362338 0.00153856 0.849808)
(-0.000565435 0.00139278 0.831483)
(-0.000725137 0.00119634 0.805255)
(-0.000829694 0.00097158 0.772464)
(0.00133687 0.00155542 0.958279)
(0.0011716 0.00189778 0.996826)
(0.000915343 0.0021995 1.0275)
(0.000586163 0.00242367 1.04888)
(0.000201885 0.00254424 1.05985)
(-0.000201974 0.00254424 1.05985)
(-0.000586249 0.00242366 1.04888)
(-0.000915423 0.00219949 1.0275)
(-0.00117167 0.00189777 0.996825)
(-0.00133694 0.0015554 0.958279)
(0.00188649 0.00218309 1.12828)
(0.00165032 0.00263417 1.17103)
(0.00128747 0.00303151 1.20485)
(0.000822693 0.00332582 1.22836)
(0.00028306 0.00348365 1.24041)
(-0.000283171 0.00348365 1.24041)
(-0.0008228 0.00332581 1.22836)
(-0.00128757 0.0030315 1.20485)
(-0.00165041 0.00263415 1.17103)
(-0.00188657 0.00218307 1.12828)
(0.00242072 0.00278664 1.28226)
(0.0021078 0.00331765 1.32771)
(0.00163838 0.00378246 1.36343)
(0.00104346 0.00412472 1.38819)
(0.000358423 0.00430748 1.40086)
(-0.000358554 0.00430747 1.40086)
(-0.00104359 0.00412471 1.38819)
(-0.0016385 0.00378245 1.36343)
(-0.00210791 0.00331764 1.32771)
(-0.00242081 0.00278662 1.28226)
(0.00288259 0.00329864 1.41995)
(0.00249314 0.00386465 1.46669)
(0.00192767 0.0043545 1.50319)
(0.00122237 0.00471202 1.5284)
(0.000418935 0.00490179 1.54125)
(-0.000419086 0.00490178 1.54125)
(-0.00122252 0.00471201 1.5284)
(-0.00192781 0.00435449 1.50319)
(-0.00249327 0.00386464 1.46669)
(-0.0028827 0.00329863 1.41994)
(0.00322721 0.00366349 1.54085)
(0.00276704 0.00421099 1.58785)
(0.00212391 0.0046728 1.6242)
(0.00133896 0.00500568 1.6491)
(0.000457504 0.00518086 1.66173)
(-0.000457671 0.00518086 1.66173)
(-0.00133913 0.00500568 1.6491)
(-0.00212406 0.00467279 1.6242)
(-0.00276718 0.00421098 1.58785)
(-0.00322734 0.00366349 1.54085)
(0.00342794 0.00388856 1.6442)
(0.00290046 0.00431804 1.69156)
(0.00220093 0.00468407 1.72681)
(0.00137656 0.00494303 1.75063)
(0.000468456 0.00507766 1.76262)
(-0.000468633 0.00507766 1.76262)
(-0.00137673 0.00494303 1.75063)
(-0.00220109 0.00468408 1.72681)
(-0.00290061 0.00431804 1.69156)
(-0.00342808 0.00388856 1.6442)
(-4.4158e-07 1.82994e-07 0.12193)
(-1.47146e-06 6.69234e-07 0.12797)
(-1.66107e-06 4.94614e-07 0.13284)
(-1.08065e-06 1.81062e-07 0.136259)
(-3.91515e-07 3.15336e-09 0.138021)
(3.86231e-07 2.75542e-09 0.138021)
(1.07554e-06 1.79893e-07 0.136259)
(1.65632e-06 4.92751e-07 0.13284)
(1.46701e-06 6.66688e-07 0.12797)
(4.37962e-07 1.79964e-07 0.12193)
(3.91305e-05 4.70849e-05 0.353609)
(3.21615e-05 5.98283e-05 0.370134)
(2.40815e-05 6.98977e-05 0.383444)
(1.53809e-05 7.71345e-05 0.392776)
(5.26711e-06 8.10363e-05 0.397583)
(-5.28495e-06 8.10351e-05 0.397583)
(-1.53982e-05 7.71313e-05 0.392776)
(-2.40976e-05 6.98925e-05 0.383444)
(-3.21765e-05 5.98213e-05 0.370134)
(-3.91428e-05 4.70765e-05 0.353609)
(0.000134222 0.00015757 0.570108)
(0.000116234 0.0001976 0.595532)
(9.02646e-05 0.000232027 0.61595)
(5.80139e-05 0.000257705 0.630243)
(1.99957e-05 0.000271618 0.637598)
(-2.00279e-05 0.000271616 0.637598)
(-5.80451e-05 0.0002577 0.630243)
(-9.02937e-05 0.00023202 0.61595)
(-0.000116261 0.00019759 0.595532)
(-0.000134244 0.000157557 0.570108)
(0.000284248 0.000330692 0.77129)
(0.000249681 0.000410861 0.804047)
(0.000195763 0.000481573 0.830248)
(0.000126002 0.000534723 0.848555)
(4.34915e-05 0.000563539 0.857965)
(-4.35392e-05 0.000563537 0.857965)
(-0.000126048 0.000534717 0.848555)
(-0.000195806 0.000481563 0.830248)
(-0.00024972 0.000410847 0.804047)
(-0.000284281 0.000330677 0.771289)
(0.000476769 0.000551463 0.95701)
(0.000420338 0.000678371 0.995554)
(0.00033032 0.000791225 1.02623)
(0.000212463 0.000876049 1.04761)
(7.33267e-05 0.00092196 1.05859)
(-7.33906e-05 0.000921958 1.05859)
(-0.000212525 0.000876043 1.04761)
(-0.000330378 0.000791215 1.02623)
(-0.000420391 0.000678356 0.995553)
(-0.000476815 0.000551446 0.957009)
(0.000693028 0.000797614 1.12711)
(0.000610265 0.000969871 1.16991)
(0.000478968 0.00112299 1.20377)
(0.000307416 0.00123764 1.22733)
(0.000105992 0.0012995 1.2394)
(-0.000106072 0.0012995 1.2394)
(-0.000307494 0.00123764 1.22733)
(-0.000479041 0.00112298 1.20377)
(-0.000610332 0.000969857 1.16991)
(-0.000693086 0.000797598 1.12711)
(0.000910406 0.00104252 1.28139)
(0.000798268 0.00125035 1.32696)
(0.000624304 0.00143396 1.36279)
(0.000399369 0.00157054 1.38764)
(0.000137467 0.00164389 1.40036)
(-0.000137563 0.00164389 1.40036)
(-0.000399462 0.00157054 1.38764)
(-0.000624391 0.00143395 1.36279)
(-0.000798348 0.00125034 1.32696)
(-0.000910476 0.00104251 1.28139)
(0.0011053 0.00125827 1.41955)
(0.000962898 0.00148458 1.46651)
(0.000749044 0.00168228 1.50319)
(0.000477029 0.00182791 1.52853)
(0.00016382 0.00190562 1.54146)
(-0.00016393 0.00190562 1.54146)
(-0.000477136 0.00182791 1.52853)
(-0.000749145 0.00168227 1.50319)
(-0.000962991 0.00148457 1.46651)
(-0.00110538 0.00125826 1.41955)
(0.00125809 0.00142084 1.54108)
(0.0010864 0.00164422 1.58838)
(0.000838713 0.00183419 1.62498)
(0.000530869 0.00197214 1.65007)
(0.000181729 0.00204505 1.6628)
(-0.000181851 0.00204505 1.6628)
(-0.000530988 0.00197214 1.65007)
(-0.000838826 0.00183418 1.62498)
(-0.00108651 0.00164421 1.58838)
(-0.00125819 0.00142084 1.54108)
(0.0013557 0.00153187 1.64515)
(0.00115412 0.00171186 1.6929)
(0.000880331 0.00186479 1.72846)
(0.000552544 0.00197351 1.75251)
(0.000188341 0.00203019 1.76462)
(-0.000188471 0.0020302 1.76462)
(-0.000552671 0.00197351 1.75251)
(-0.000880452 0.0018648 1.72846)
(-0.00115423 0.00171186 1.69289)
(-0.0013558 0.00153187 1.64515)
(1.54828e-08 7.74665e-07 0.121902)
(-8.37309e-07 1.15664e-06 0.127939)
(-1.04252e-06 9.87311e-07 0.132806)
(-7.56871e-07 6.98072e-07 0.136222)
(-2.81737e-07 5.13599e-07 0.137983)
(2.78135e-07 5.13333e-07 0.137983)
(7.53381e-07 6.97258e-07 0.136222)
(1.03927e-06 9.86028e-07 0.132806)
(8.3432e-07 1.15489e-06 0.127939)
(-1.79498e-08 7.72646e-07 0.121902)
(1.11101e-05 1.46109e-05 0.353477)
(7.8413e-06 1.882e-05 0.36999)
(5.22071e-06 2.14916e-05 0.383289)
(3.12553e-06 2.31811e-05 0.392612)
(1.03052e-06 2.4037e-05 0.397414)
(-1.04274e-06 2.40362e-05 0.397414)
(-3.13738e-06 2.31788e-05 0.392612)
(-5.23176e-06 2.1488e-05 0.383289)
(-7.8514e-06 1.88151e-05 0.36999)
(-1.11186e-05 1.46053e-05 0.353476)