/*--------------------------------*- C++ -*----------------------------------*\
| =========                 |                                                 |
| \\      /  F ield         | OpenFOAM: The Open Source CFD Toolbox           |
|  \\    /   O peration     | Version:  2106                                  |
|   \\  /    A nd           | Website:  www.openfoam.com                      |
|    \\/     M anipulation  |                                                 |
\*---------------------------------------------------------------------------*/
FoamFile
{
    version     2.0;
    format      ascii;
    arch        "LSB;label=32;scalar=64";
    class       surfaceScalarField;
    location    "0.88";
    object      phi;
}
// * * * * * * * * * * * * * * * * * * * * * * * * * * * * * * * * * * * * * //

dimensions      [0 3 -1 0 0 0 0];

oriented        oriented;

internalField   nonuniform List<scalar> 
29100
(
0.00119026
0.151578
0.0815646
-2.67803e-10
0.00146465
0.156493
0.0896344
0.00125689
0.159939
0.0963756
0.000715805
0.162234
0.101201
-1.58221e-09
0.163386
0.103713
-0.000715808
0.163386
0.103713
-0.00125689
0.162234
0.101201
-0.00146465
0.159939
0.0963756
-0.00119026
0.156493
0.0896344
0.151578
0.0815646
-2.56769e-09
0.00238301
0.209874
0.156689
-5.46834e-10
0.00331008
0.214494
0.17032
0.00295232
0.217589
0.181465
0.00170788
0.21952
0.189347
-4.3642e-09
0.220467
0.193419
-0.00170789
0.220467
0.193419
-0.00295232
0.21952
0.189347
-0.00331009
0.217589
0.181465
-0.00238302
0.214494
0.17032
0.209874
0.156689
-6.91512e-09
0.0030399
0.221097
0.186141
-7.71163e-10
0.00429969
0.224044
0.201283
0.00385963
0.225965
0.213471
0.00223546
0.227013
0.222014
-7.0512e-09
0.227499
0.226405
-0.00223547
0.227499
0.226405
-0.00385965
0.227013
0.222014
-0.00429971
0.225965
0.213471
-0.00303991
0.224044
0.201283
0.221097
0.186141
-1.08119e-08
0.00347192
0.207769
0.193294
-9.62007e-10
0.00484393
0.209036
0.208574
0.00433908
0.209808
0.220719
0.00250867
0.210048
0.229172
-9.79048e-09
0.21012
0.233498
-0.00250869
0.21012
0.233498
-0.00433909
0.210048
0.229172
-0.00484395
0.209808
0.220719
-0.00347194
0.209036
0.208574
0.207769
0.193294
-1.43515e-08
0.00370292
0.182658
0.187882
-1.15437e-09
0.00509643
0.182632
0.202794
0.00455291
0.182531
0.214528
0.00262886
0.182198
0.222646
-1.26928e-08
0.181981
0.226787
-0.00262889
0.181981
0.226787
-0.00455293
0.182198
0.222646
-0.00509645
0.182531
0.214528
-0.00370294
0.182632
0.202794
0.182658
0.187882
-1.76721e-08
0.00378842
0.153099
0.17528
-1.37439e-09
0.00516274
0.152216
0.189671
0.0046026
0.151546
0.200904
0.00265606
0.150877
0.208634
-1.58165e-08
0.150497
0.212568
-0.00265609
0.150497
0.212568
-0.00460263
0.150877
0.208634
-0.00516277
0.151546
0.200904
-0.00378844
0.152216
0.189671
0.153099
0.17528
-2.08284e-08
0.00379643
0.123203
0.158644
-1.656e-09
0.0051374
0.121835
0.172514
0.00457309
0.12085
0.183269
0.00263887
0.120037
0.190636
-1.91814e-08
0.119597
0.194375
-0.00263891
0.119597
0.194375
-0.00457313
0.120037
0.190636
-0.00513743
0.12085
0.183269
-0.00379646
0.121835
0.172514
0.123203
0.158644
-2.38742e-08
0.00376179
0.0952022
0.139819
-1.94631e-09
0.00508311
0.0936105
0.153223
0.00452462
0.0925073
0.16356
0.00261209
0.0916958
0.170609
-2.2751e-08
0.091276
0.174179
-0.00261214
0.091276
0.174179
-0.00452466
0.0916958
0.170609
-0.00508315
0.0925073
0.16356
-0.00376182
0.0936105
0.153223
0.0952022
0.139819
-2.67612e-08
0.00372986
0.0702196
0.119868
-2.11946e-09
0.0050648
0.0685697
0.132871
0.00450975
0.0675216
0.14285
0.00260271
0.066828
0.149625
-2.63884e-08
0.0664847
0.153048
-0.00260276
0.0664847
0.153048
-0.0045098
0.066828
0.149625
-0.00506484
0.0675216
0.14285
-0.0037299
0.0685697
0.132871
0.0702196
0.119868
-2.9389e-08
0.00395177
0.0993969
-2.23011e-09
0.0485214
0.00525589
0.11206
0.0472162
0.00462305
0.121727
0.0463874
0.00264801
0.128262
0.045886
-2.98417e-08
0.131556
0.0456402
-0.00264807
0.131556
0.0456402
-0.0046231
0.128262
0.045886
-0.00525594
0.121727
0.0463874
-0.00395181
0.11206
0.0472162
0.0993969
-3.13862e-08
0.0485214
-0.000242272
0.0368195
0.0449874
-3.55915e-10
-0.000244334
0.0400192
0.0496173
-0.000171723
0.042723
0.05358
-8.5511e-05
0.0446565
0.056458
-2.78045e-09
0.0456567
0.0579713
8.55056e-05
0.0456567
0.0579713
0.000171718
0.0446565
0.056458
0.000244329
0.042723
0.05358
0.000242267
0.0400192
0.0496173
0.0368195
0.0449874
-4.3381e-09
6.54738e-05
0.0813377
0.112105
-7.70706e-10
0.000255368
0.0871742
0.122975
0.000305062
0.0920278
0.13211
0.000204319
0.0954286
0.138675
-8.40855e-09
0.0971755
0.142105
-0.000204335
0.0971755
0.142105
-0.000305078
0.0954286
0.138675
-0.000255383
0.0920278
0.13211
-6.54871e-05
0.0871742
0.122975
0.0813377
0.112105
-1.25496e-08
0.000619772
0.113092
0.153767
-1.15608e-09
0.00104148
0.119855
0.16818
0.00101897
0.125406
0.180115
0.000622735
0.129221
0.188618
-1.41338e-08
0.131165
0.193038
-0.000622763
0.131165
0.193038
-0.001019
0.129221
0.188618
-0.0010415
0.125406
0.180115
-0.000619794
0.119855
0.16818
0.113092
0.153767
-2.02516e-08
0.00124405
0.129725
0.175417
-1.50612e-09
0.0018925
0.13617
0.191611
0.00178072
0.141392
0.204846
0.00106352
0.144906
0.214204
-2.00048e-08
0.14668
0.219047
-0.00106356
0.14668
0.219047
-0.00178076
0.144906
0.214204
-0.00189253
0.141392
0.204846
-0.00124408
0.13617
0.191611
0.129725
0.175417
-2.73569e-08
0.00185453
0.132987
0.182767
-1.87964e-09
0.00270126
0.138418
0.1997
0.00249648
0.142749
0.213376
0.00147473
0.145595
0.222978
-2.60838e-08
0.147014
0.227927
-0.00147478
0.147014
0.227927
-0.00249653
0.145595
0.222978
-0.00270131
0.142749
0.213376
-0.00185457
0.138418
0.1997
0.132987
0.182767
-3.39165e-08
0.00240691
0.125929
0.179931
-2.32809e-09
0.00342081
0.130072
0.197003
0.00312881
0.1333
0.210645
0.0018368
0.13536
0.220161
-3.23641e-08
0.136372
0.225047
-0.00183687
0.136372
0.225047
-0.00312887
0.13536
0.220161
-0.00342087
0.1333
0.210645
-0.00240696
0.130072
0.197003
0.125929
0.179931
-3.99024e-08
0.00287787
0.1118
0.169895
-2.93861e-09
0.00403462
0.11465
0.186779
0.00366909
0.11679
0.200145
0.00214671
0.118107
0.209411
-3.87609e-08
0.118741
0.214152
-0.00214679
0.118741
0.214152
-0.00366916
0.118107
0.209411
-0.00403468
0.11679
0.200144
-0.00287793
0.11465
0.186779
0.1118
0.169895
-4.53023e-08
0.00326156
0.093537
0.15482
-3.67476e-09
0.00455241
0.095224
0.171359
0.00413115
0.0964291
0.184342
0.00241331
0.0971418
0.193291
-4.50763e-08
0.0974791
0.197854
-0.0024134
0.0974791
0.197854
-0.00413123
0.0971418
0.193291
-0.00455248
0.0964291
0.184342
-0.00326162
0.095224
0.171359
0.093537
0.15482
-5.00028e-08
0.00359405
0.0735558
0.136255
-4.40991e-09
0.00502375
0.0742735
0.152392
0.00455304
0.0747881
0.164962
0.00265556
0.0750887
0.173576
-5.09201e-08
0.075231
0.177952
-0.00265566
0.075231
0.177952
-0.00455313
0.0750887
0.173576
-0.00502383
0.0747881
0.164962
-0.00359411
0.0742735
0.152392
0.0735558
0.136255
-5.38585e-08
0.00402355
0.1153
-5.11531e-09
0.0536289
0.00557387
0.131046
0.0537378
0.00501215
0.143202
0.0538748
0.00290712
0.151483
0.0539728
-5.56777e-08
0.155676
0.0540185
-0.00290723
0.155676
0.0540185
-0.00501225
0.151483
0.0539728
-0.00557395
0.143202
0.0538748
-0.00402362
0.131046
0.0537378
0.1153
-5.62633e-08
0.0536289
3.96078e-05
0.0100774
0.0348704
-3.52188e-10
3.55516e-05
0.0111197
0.0385017
2.99615e-05
0.0120042
0.0415813
1.66058e-05
0.012661
0.0438103
-3.07665e-09
0.013007
0.0449809
-1.66119e-05
0.013007
0.0449809
-2.99674e-05
0.012661
0.0438103
-3.5557e-05
0.0120042
0.0415813
-3.96128e-05
0.0111197
0.0385017
0.0100774
0.0348704
-4.8107e-09
0.000283746
0.0305569
0.0913417
-7.7563e-10
0.000385373
0.0332894
0.100703
0.000344449
0.035576
0.108579
0.000200932
0.0372252
0.114254
-9.67071e-09
0.0380868
0.117226
-0.000200951
0.0380868
0.117226
-0.000344468
0.0372252
0.114254
-0.00038539
0.035576
0.108579
-0.000283761
0.0332894
0.100703
0.0305569
0.0913417
-1.4229e-08
0.000606049
0.0516414
0.132077
-1.2115e-09
0.000859993
0.0556779
0.145538
0.000779157
0.0590111
0.156761
0.0004567
0.0613619
0.164804
-1.66023e-08
0.0625796
0.169002
-0.000456732
0.0625796
0.169002
-0.000779188
0.0613619
0.164804
-0.000860022
0.0590111
0.156761
-0.000606074
0.0556779
0.145538
0.0516414
0.132077
-2.32259e-08
0.000976548
0.0675863
0.158495
-1.66878e-09
0.00140152
0.0722045
0.174659
0.00128012
0.075972
0.188006
0.000751806
0.0785773
0.197517
-2.37868e-08
0.0799147
0.202463
-0.000751852
0.0799147
0.202463
-0.00128017
0.0785773
0.197517
-0.00140156
0.075972
0.188006
-0.000976583
0.0722045
0.174659
0.0675863
0.158495
-3.15863e-08
0.00136993
0.0763784
0.172604
-2.20285e-09
0.00196231
0.0809136
0.190399
0.0017968
0.0845646
0.204949
0.00105552
0.087041
0.215256
-3.11724e-08
0.0882996
0.220598
-0.00105558
0.0882996
0.220598
-0.00179686
0.087041
0.215256
-0.00196236
0.0845646
0.204949
-0.00136997
0.0809136
0.190399
0.0763784
0.172604
-3.92499e-08
0.00176561
0.0780339
0.17651
-2.86486e-09
0.002512
0.0820147
0.195155
0.00229911
0.0851646
0.210258
0.00134984
0.0872583
0.220893
-3.86436e-08
0.0883108
0.226386
-0.00134992
0.0883108
0.226386
-0.00229918
0.0872583
0.220893
-0.00251206
0.0851646
0.210258
-0.00176567
0.0820147
0.195155
0.0780339
0.17651
-4.61053e-08
0.0021401
0.0736331
0.172156
-3.73898e-09
0.00302614
0.0767945
0.191113
0.00276692
0.0792384
0.20633
0.00162356
0.080829
0.216984
-4.60051e-08
0.0816195
0.222467
-0.00162365
0.0816195
0.222467
-0.002767
0.080829
0.216984
-0.00302621
0.0792384
0.20633
-0.00214016
0.0767945
0.191113
0.0736331
0.172156
-5.20703e-08
0.00247715
0.0647406
0.161235
-4.77747e-09
0.00349459
0.0669843
0.180152
0.00319356
0.0686754
0.195206
0.00187301
0.0697563
0.205685
-5.29516e-08
0.0702886
0.211058
-0.00187311
0.0702886
0.211058
-0.00319365
0.0697563
0.205685
-0.00349467
0.0686754
0.195206
-0.00247722
0.0669843
0.180151
0.0647406
0.161235
-5.69746e-08
0.00278936
0.0530315
0.145175
-5.83157e-09
0.00393332
0.0543922
0.16384
0.00358878
0.0554116
0.17857
0.00210184
0.0560608
0.188758
-5.89868e-08
0.0563801
0.193963
-0.00210196
0.0563801
0.193963
-0.00358889
0.0560608
0.188758
-0.00393341
0.0554116
0.17857
-0.00278943
0.0543922
0.16384
0.0530315
0.145175
-6.06369e-08
0.00313526
0.125151
-6.81306e-09
0.0400453
0.00438638
0.143483
0.0407038
0.00397947
0.157789
0.0412315
0.00232122
0.167616
0.0415858
-6.34163e-08
0.172616
0.0417609
-0.00232134
0.172616
0.0417609
-0.00397958
0.167616
0.0415858
-0.00438647
0.157789
0.0412315
-0.00313533
0.143483
0.0407038
0.125151
-6.23991e-08
0.0400453
-3.18709e-05
0.0041169
0.0307854
-3.5316e-10
-4.55095e-05
0.00453348
0.0339818
-3.668e-05
0.00488697
0.0366855
-2.02179e-05
0.00514981
0.0386441
-2.91547e-09
0.0052875
0.0396732
2.02122e-05
0.0052875
0.0396732
3.66745e-05
0.00514981
0.0386441
4.55043e-05
0.00488698
0.0366855
3.1866e-05
0.00453348
0.0339818
0.0041169
0.0307854
-4.51597e-09
1.03125e-05
0.0127852
0.0826631
-7.93531e-10
1.77779e-05
0.0140097
0.0912196
2.22216e-05
0.0150474
0.0984144
1.58274e-05
0.0158037
0.103607
-9.32468e-09
0.0162004
0.106329
-1.58457e-05
0.0162004
0.106329
-2.22391e-05
0.0158037
0.103607
-1.77936e-05
0.0150474
0.0984144
-1.03262e-05
0.0140097
0.0912195
0.0127852
0.0826631
-1.3461e-08
0.000125024
0.0227606
0.121977
-1.27209e-09
0.000189585
0.0247946
0.134688
0.000182051
0.0265067
0.145309
0.000110906
0.0277358
0.152943
-1.6165e-08
0.0283775
0.156936
-0.000110938
0.0283775
0.156936
-0.000182081
0.0277358
0.152943
-0.000189613
0.0265067
0.145309
-0.000125048
0.0247946
0.134688
0.0227606
0.121976
-2.23253e-08
0.000297511
0.03156
0.149398
-1.78754e-09
0.000443611
0.0341511
0.165157
0.000418193
0.0363112
0.178227
0.000250734
0.037839
0.187581
-2.33122e-08
0.0386317
0.19246
-0.000250779
0.0386317
0.19246
-0.000418236
0.037839
0.187581
-0.00044365
0.0363112
0.178227
-0.000297545
0.0341511
0.165157
0.03156
0.149398
-3.05389e-08
0.000511989
0.0376457
0.166007
-2.39887e-09
0.000752584
0.0404494
0.18386
0.000703962
0.0427568
0.198552
0.000419342
0.0443642
0.209015
-3.06523e-08
0.0451918
0.214457
-0.000419402
0.0451919
0.214457
-0.000704018
0.0443642
0.209015
-0.000752634
0.0427569
0.198552
-0.000512032
0.0404494
0.18386
0.0376457
0.166007
-3.80278e-08
0.000752252
0.0403583
0.173045
-3.14874e-09
0.0010922
0.0430499
0.192215
0.00101613
0.0452276
0.207863
0.00060297
0.04672
0.21895
-3.80109e-08
0.047482
0.224699
-0.000603045
0.047482
0.224699
-0.0010162
0.0467201
0.21895
-0.00109226
0.0452277
0.207863
-0.000752304
0.0430499
0.192215
0.0403583
0.173045
-4.46608e-08
0.00100083
0.0397153
0.171798
-4.11164e-09
0.00144049
0.042047
0.191676
0.0013352
0.0438926
0.20777
0.00079032
0.0451361
0.219113
-4.51391e-08
0.0457653
0.224974
-0.000790408
0.0457653
0.224974
-0.00133528
0.0451362
0.219113
-0.00144056
0.0438926
0.20777
-0.00100089
0.042047
0.191676
0.0397153
0.171798
-5.03257e-08
0.00124459
0.0361987
0.163507
-5.24448e-09
0.00178396
0.0380173
0.183642
0.00164929
0.0394232
0.19981
0.000974305
0.0403557
0.21114
-5.16984e-08
0.0408237
0.216974
-0.000974405
0.0408237
0.216974
-0.00164938
0.0403558
0.21114
-0.00178404
0.0394232
0.19981
-0.00124466
0.0380173
0.183642
0.0361987
0.163507
-5.48475e-08
0.00148773
0.0305585
0.149327
-6.40683e-09
0.00212498
0.0318111
0.169409
0.00195693
0.0327644
0.185397
0.00115276
0.0333909
0.196527
-5.71892e-08
0.0337038
0.202235
-0.00115287
0.0337038
0.202235
-0.00195703
0.0333909
0.196527
-0.00212507
0.0327644
0.185397
-0.0014878
0.0318112
0.169409
0.0305585
0.149327
-5.80622e-08
0.00174486
0.130307
-7.46963e-09
0.023658
0.00247401
0.150183
0.0243819
0.00226537
0.16581
0.0249518
0.0013288
0.176608
0.0253355
-6.09404e-08
0.182121
0.0255272
-0.00132891
0.182121
0.0255272
-0.00226548
0.176608
0.0253355
-0.0024741
0.16581
0.0249518
-0.00174494
0.150183
0.0243819
0.130307
-5.93418e-08
0.023658
2.11784e-06
0.00134768
0.0294356
-3.49225e-10
-2.81994e-07
0.00149642
0.0324878
1.24692e-07
0.00162579
0.0350593
1.42291e-07
0.00172453
0.0369195
-2.49474e-09
0.0017772
0.0378961
-1.47232e-07
0.0017772
0.0378961
-1.29443e-07
0.00172453
0.0369195
2.7757e-07
0.00162579
0.0350593
-2.12184e-06
0.00149643
0.0324878
0.00134768
0.0294356
-3.93731e-09
3.11558e-05
0.00483553
0.0791441
-8.46099e-10
4.02913e-05
0.00533712
0.0873697
3.71157e-05
0.00576806
0.0942753
2.20167e-05
0.00608821
0.0992583
-8.09455e-09
0.00625784
0.10187
-2.20327e-05
0.00625784
0.10187
-3.7131e-05
0.00608822
0.0992583
-4.03053e-05
0.00576807
0.0942753
-3.11686e-05
0.00533712
0.0873697
0.00483553
0.0791441
-1.19078e-08
8.69632e-05
0.00932995
0.117395
-1.34601e-09
0.000123277
0.0102409
0.129748
0.000113796
0.0110167
0.14007
6.75453e-05
0.0115826
0.147495
-1.41541e-08
0.0118809
0.15138
-6.75732e-05
0.0118809
0.15138
-0.000113822
0.0115826
0.147495
-0.000123301
0.0110167
0.14007
-8.69846e-05
0.0102409
0.129748
0.00932996
0.117395
-1.96392e-08
0.000169289
0.0137113
0.144848
-1.86224e-09
0.000245828
0.014961
0.16036
0.000228321
0.0160151
0.173246
0.000135595
0.0167727
0.182484
-2.05212e-08
0.0171694
0.187307
-0.000135635
0.0171694
0.187307
-0.000228358
0.0167727
0.182484
-0.000245863
0.0160151
0.173246
-0.000169319
0.014961
0.16036
0.0137113
0.144848
-2.68802e-08
0.000275144
0.0171378
0.162305
-2.45619e-09
0.000401048
0.0185802
0.180115
0.000373244
0.0197828
0.194812
0.000221607
0.0206347
0.205305
-2.70622e-08
0.0210776
0.21077
-0.00022166
0.0210776
0.21077
-0.000373294
0.0206347
0.205305
-0.000401092
0.0197828
0.194812
-0.000275181
0.0185802
0.180114
0.0171378
0.162305
-3.35156e-08
0.000399088
0.0191056
0.170678
-3.1723e-09
0.000579838
0.0205722
0.190042
0.000539443
0.0217769
0.205909
0.000320033
0.0226176
0.217187
-3.3594e-08
0.0230513
0.223045
-0.000320099
0.0230513
0.223045
-0.000539504
0.0226176
0.217187
-0.000579891
0.0217769
0.205909
-0.000399133
0.0205722
0.190042
0.0191056
0.170678
-3.93826e-08
0.000533559
0.0194374
0.170932
-4.07816e-09
0.000771837
0.0207764
0.191234
0.00071722
0.0218559
0.207746
0.000425078
0.0225977
0.219425
-3.98693e-08
0.0229771
0.225473
-0.000425155
0.0229771
0.225473
-0.000717292
0.0225977
0.219425
-0.000771899
0.0218559
0.207746
-0.000533611
0.0207764
0.191234
0.0194375
0.170932
-4.43613e-08
0.000671743
0.0182287
0.164044
-5.1349e-09
0.000968845
0.0193282
0.184793
0.000898724
0.0201967
0.201539
0.000531896
0.0207846
0.21332
-4.55718e-08
0.0210827
0.219401
-0.000531985
0.0210827
0.219401
-0.000898806
0.0207846
0.21332
-0.000968915
0.0201967
0.201539
-0.000671799
0.0193282
0.184793
0.0182287
0.164044
-4.82895e-08
0.000813609
0.0157718
0.150971
-6.20243e-09
0.00116789
0.016575
0.171808
0.00107906
0.0171972
0.188485
0.000636932
0.017613
0.200141
-5.02611e-08
0.0178224
0.206133
-0.00063703
0.0178224
0.206133
-0.00107915
0.017613
0.200141
-0.00116797
0.0171972
0.188485
-0.000813669
0.016575
0.171808
0.0157718
0.150971
-5.10221e-08
0.00095376
0.132637
-7.13404e-09
0.0124884
0.00136112
0.153367
0.0129838
0.00125284
0.169742
0.013373
0.00073732
0.181099
0.013637
-5.33697e-08
0.186911
0.0137699
-0.000737423
0.186911
0.0137699
-0.00125293
0.181099
0.013637
-0.0013612
0.169742
0.013373
-0.000953822
0.153367
0.0129838
0.132637
-5.20293e-08
0.0124884
-5.62098e-06
0.000588146
0.0288531
-2.61197e-10
-8.37805e-06
0.000647026
0.0318435
-6.6357e-06
0.000696839
0.0343608
-3.65628e-06
0.000734708
0.0361818
-1.97097e-09
0.000754612
0.0371379
3.6522e-06
0.000754613
0.0371379
6.63185e-06
0.000734708
0.0361818
8.37456e-06
0.00069684
0.0343608
5.6176e-06
0.000647027
0.0318435
0.000588147
0.0288531
-3.24474e-09
-8.59823e-07
0.00204925
0.0776839
-6.48667e-10
-1.89507e-06
0.00225756
0.0857602
-6.164e-07
0.00243507
0.0925358
1.80724e-07
0.00256703
0.0974252
-6.43751e-09
0.00263694
0.0999882
-1.9262e-07
0.00263694
0.0999882
6.04327e-07
0.00256703
0.0974252
1.88275e-06
0.00243507
0.0925358
8.49489e-07
0.00225756
0.0857602
0.00204925
0.0776838
-9.76915e-09
1.79161e-05
0.00398599
0.11544
-1.09237e-09
2.65059e-05
0.0043836
0.127614
2.59964e-05
0.00472246
0.137783
1.60639e-05
0.0049711
0.145101
-1.15129e-08
0.0051025
0.148931
-1.60868e-05
0.0051025
0.148931
-2.6018e-05
0.0049711
0.145101
-2.65254e-05
0.00472246
0.137783
-1.79335e-05
0.00438361
0.127614
0.003986
0.11544
-1.61456e-08
5.13759e-05
0.0059741
0.142808
-1.58837e-09
7.64801e-05
0.00654665
0.158172
7.28012e-05
0.00703202
0.17094
4.39483e-05
0.00738384
0.1801
-1.68034e-08
0.00756892
0.184885
-4.39813e-05
0.00756892
0.184885
-7.28323e-05
0.00738385
0.1801
-7.6508e-05
0.00703203
0.17094
-5.14002e-05
0.00654666
0.158172
0.00597411
0.142808
-2.21503e-08
9.82789e-05
0.00763849
0.160542
-2.16041e-09
0.000145578
0.00833026
0.178284
0.000137463
0.00891125
0.192941
8.24015e-05
0.00932711
0.203417
-2.22227e-08
0.00954457
0.208877
-8.2445e-05
0.00954457
0.208877
-0.000137504
0.00932712
0.203417
-0.000145614
0.00891126
0.192941
-9.83099e-05
0.00833027
0.178284
0.0076385
0.160542
-2.76761e-08
0.000156465
0.00871127
0.169449
-2.83089e-09
0.00023015
0.00944544
0.188853
0.000216356
0.0100539
0.20478
0.000129229
0.0104836
0.216118
-2.76265e-08
0.0107067
0.222012
-0.000129283
0.0107067
0.222012
-0.000216406
0.0104836
0.216118
-0.000230194
0.0100539
0.20478
-0.000156502
0.00944546
0.188853
0.00871128
0.169449
-3.25784e-08
0.000222667
0.00905461
0.170366
-3.64075e-09
0.000325551
0.00975268
0.190824
0.000305063
0.0103213
0.207499
0.000181767
0.0107172
0.219315
-3.28008e-08
0.0109211
0.225441
-0.000181831
0.0109211
0.225441
-0.000305122
0.0107172
0.219314
-0.000325602
0.0103214
0.207499
-0.00022271
0.0097527
0.190824
0.00905462
0.170366
-3.67501e-08
0.000293823
0.00865839
0.164147
-4.54769e-09
0.000427791
0.00925514
0.185157
0.000399594
0.00973204
0.202157
0.000237507
0.0100591
0.21414
-3.74798e-08
0.0102262
0.220333
-0.00023758
0.0102262
0.220333
-0.000399661
0.0100591
0.21414
-0.000427849
0.00973205
0.202157
-0.00029387
0.00925516
0.185157
0.00865841
0.164147
-4.00546e-08
0.000370095
0.00761952
0.151639
-5.43897e-09
0.000535132
0.00807509
0.172823
0.000497092
0.00843167
0.189823
0.000294398
0.00867269
0.20173
-4.13083e-08
0.00879479
0.207859
-0.000294478
0.00879479
0.207858
-0.000497165
0.0086727
0.20173
-0.000535195
0.00843168
0.189823
-0.000370145
0.0080751
0.172823
0.00761953
0.151639
-4.23696e-08
0.000446567
0.13369
-6.20132e-09
0.00611952
0.000641916
0.154832
0.00641462
0.00059401
0.171574
0.00664763
0.000350719
0.183209
0.00680661
-4.38419e-08
0.18917
0.00688703
-0.000350804
0.18917
0.00688703
-0.000594087
0.183209
0.00680661
-0.000641981
0.171574
0.00664764
-0.000446618
0.154832
0.00641463
0.13369
-4.3278e-08
0.00611952
-8.54227e-07
0.000191573
0.0286624
-2.35373e-10
-1.65463e-06
0.000212192
0.0316322
-1.20357e-06
0.000230134
0.0341302
-6.43023e-07
0.000244218
0.035937
-1.53327e-09
0.000251732
0.0368855
6.39962e-07
0.000251732
0.0368855
1.20063e-06
0.000244218
0.035937
1.65184e-06
0.000230135
0.0341302
8.51578e-07
0.000212193
0.0316321
0.000191573
0.0286624
-2.48526e-09
1.85767e-06
0.000747762
0.0771258
-6.01878e-10
1.97921e-06
0.000828032
0.0851443
2.14566e-06
0.000897551
0.0918682
1.40486e-06
0.000950156
0.09672
-5.04497e-09
0.000978237
0.0992631
-1.41484e-06
0.000978237
0.0992631
-2.15519e-06
0.000950157
0.09672
-1.98788e-06
0.000897553
0.0918682
-1.86546e-06
0.000828034
0.0851442
0.000747765
0.0771258
-7.51682e-09
1.00578e-05
0.00153755
0.114641
-9.89745e-10
1.41211e-05
0.00169937
0.126738
1.34078e-05
0.00183884
0.136842
8.12168e-06
0.00194253
0.144114
-8.91955e-09
0.00199769
0.147919
-8.13924e-06
0.0019977
0.147919
-1.34245e-05
0.00194253
0.144114
-1.41363e-05
0.00183885
0.136842
-1.00713e-05
0.00169937
0.126738
0.00153756
0.114641
-1.2537e-08
2.44023e-05
0.00239138
0.14193
-1.3998e-09
3.55516e-05
0.00263444
0.157226
3.34858e-05
0.00284258
0.169939
2.00878e-05
0.00299523
0.179061
-1.30344e-08
0.00307605
0.183826
-2.01134e-05
0.00307606
0.183826
-3.35099e-05
0.00299524
0.179061
-3.55734e-05
0.00284258
0.169939
-2.44213e-05
0.00263445
0.157226
0.00239139
0.14193
-1.73024e-08
4.49617e-05
0.00314715
0.159742
-1.86204e-09
6.60283e-05
0.00345167
0.177445
6.20933e-05
0.00371002
0.192077
3.71334e-05
0.00389711
0.20254
-1.72812e-08
0.00399557
0.207995
-3.71672e-05
0.00399557
0.207995
-6.21249e-05
0.00389711
0.20254
-6.60566e-05
0.00371003
0.192077
-4.49859e-05
0.00345168
0.177445
0.00314716
0.159742
-2.17141e-08
7.11684e-05
0.00367661
0.168849
-2.39592e-09
0.000104466
0.0040104
0.188261
9.8112e-05
0.00429003
0.204207
5.85696e-05
0.00448986
0.215564
-2.15221e-08
0.0045943
0.221472
-5.86117e-05
0.0045943
0.221472
-9.81511e-05
0.00448987
0.215564
-0.000104501
0.00429004
0.204207
-7.11975e-05
0.00401041
0.188261
0.00367662
0.168849
-2.5653e-08
0.000101821
0.00390139
0.17004
-3.03096e-09
0.000149058
0.00422824
0.190559
0.000139772
0.00449767
0.207301
8.33104e-05
0.00468749
0.219173
-2.55836e-08
0.00478591
0.225333
-8.33603e-05
0.00478592
0.225333
-0.000139818
0.0046875
0.219173
-0.000149099
0.00449768
0.2073
-0.000101854
0.00422825
0.190559
0.00390141
0.17004
-2.90331e-08
0.000135618
0.00379845
0.164114
-3.73948e-09
0.000197947
0.00408585
0.185237
0.000185144
0.00431837
0.202349
0.000110127
0.00447966
0.214423
-2.92603e-08
0.00456253
0.220667
-0.000110184
0.00456254
0.220667
-0.000185197
0.00447967
0.214423
-0.000197993
0.00431838
0.202349
-0.000135655
0.00408586
0.185237
0.00379846
0.164114
-3.17445e-08
0.000172301
0.00339627
0.151869
-4.43429e-09
0.000249698
0.00362228
0.173209
0.00023231
0.0038008
0.190358
0.000137725
0.00392253
0.202381
-3.22881e-08
0.0039845
0.208574
-0.000137787
0.0039845
0.208574
-0.000232367
0.00392254
0.202381
-0.000249747
0.0038008
0.190358
-0.00017234
0.00362229
0.173209
0.00339628
0.151869
-3.36913e-08
0.000207295
0.13411
-5.00309e-09
0.00276933
0.000299403
0.155442
0.00291965
0.000278019
0.172358
0.00303864
0.000164505
0.184125
0.00312021
-3.43457e-08
0.190157
0.00316164
-0.000164572
0.190157
0.00316164
-0.000278079
0.184125
0.00312022
-0.000299455
0.172358
0.00303865
-0.000207336
0.155442
0.00291966
0.13411
-3.45891e-08
0.00276934
-1.39025e-06
7.80416e-05
0.0285857
-1.64863e-10
-2.00115e-06
8.56825e-05
0.0315471
-1.60662e-06
9.22224e-05
0.0340376
-8.86543e-07
9.7316e-05
0.035839
-1.1274e-09
0.000100007
0.0367846
8.84308e-07
0.000100007
0.0367846
1.60447e-06
9.73163e-05
0.035839
1.99912e-06
9.22229e-05
0.0340376
1.38834e-06
8.56831e-05
0.0315471
7.80421e-05
0.0285857
-1.81491e-09
-1.63078e-06
0.000293922
0.0769116
-4.42802e-10
-2.45276e-06
0.000324672
0.0849061
-1.96395e-06
0.000351241
0.0916087
-1.04239e-06
0.000371392
0.096445
-3.7256e-09
0.000382139
0.0989799
1.03504e-06
0.000382139
0.0989799
1.95693e-06
0.000371393
0.096445
2.44623e-06
0.000351243
0.0916087
1.62474e-06
0.000324674
0.0849061
0.000293923
0.0769115
-5.55465e-09
8.65144e-07
0.00060548
0.114328
-7.44631e-10
1.13704e-06
0.000669843
0.126393
1.34551e-06
0.000725337
0.136468
9.41942e-07
0.000766806
0.143719
-6.6041e-09
0.00078892
0.147514
-9.54929e-07
0.000788921
0.147514
-1.35783e-06
0.000766808
0.143719
-1.14815e-06
0.00072534
0.136468
-8.74495e-07
0.000669847
0.126393
0.000605484
0.114328
-9.19577e-09
6.06219e-06
0.000953763
0.141575
-1.08564e-09
8.96434e-06
0.00105365
0.156839
8.6868e-06
0.00113944
0.169525
5.31902e-06
0.00120277
0.178628
-9.67824e-09
0.00123641
0.183384
-5.33801e-06
0.00123641
0.183384
-8.70471e-06
0.00120277
0.178628
-8.98053e-06
0.00113945
0.169525
-6.07634e-06
0.00105366
0.156839
0.000953769
0.141575
-1.28917e-08
1.42133e-05
0.00127481
0.159406
-1.45853e-09
2.10742e-05
0.00140378
0.177088
2.00601e-05
0.00151367
0.191704
1.20996e-05
0.00159381
0.202157
-1.28633e-08
0.00163616
0.207607
-1.21248e-05
0.00163616
0.207607
-2.00837e-05
0.00159382
0.202157
-2.10953e-05
0.00151368
0.191704
-1.42315e-05
0.00140379
0.177088
0.00127481
0.159406
-1.63085e-08
2.50796e-05
0.00151293
0.168585
-1.87536e-09
3.70937e-05
0.00165829
0.187995
3.51032e-05
0.00178069
0.203942
2.10632e-05
0.00186882
0.215303
-1.60532e-08
0.00191508
0.221214
-2.10946e-05
0.00191508
0.221214
-3.51324e-05
0.00186883
0.215303
-3.71195e-05
0.0017807
0.203942
-2.51014e-05
0.0016583
0.187995
0.00151294
0.168585
-1.93701e-08
3.82178e-05
0.00162968
0.169885
-2.35504e-09
5.63358e-05
0.00177577
0.190423
5.31362e-05
0.00189691
0.207188
3.179e-05
0.00198291
0.219081
-1.91179e-08
0.0020277
0.225252
-3.18273e-05
0.0020277
0.225252
-5.31707e-05
0.00198292
0.219081
-5.6366e-05
0.00189691
0.207187
-3.82429e-05
0.00177577
0.190423
0.00162969
0.169885
-2.20305e-08
5.31419e-05
0.00160856
0.164082
-2.87233e-09
7.80594e-05
0.00174028
0.185247
7.33606e-05
0.00184754
0.202403
4.37631e-05
0.0019225
0.214513
-2.19064e-08
0.00196117
0.220777
-4.38057e-05
0.00196117
0.220777
-7.33999e-05
0.0019225
0.214513
-7.80935e-05
0.00184755
0.202403
-5.31698e-05
0.00174029
0.185247
0.00160857
0.164082
-2.42124e-08
6.98221e-05
0.00145554
0.151953
-3.3592e-09
0.00010168
0.00156184
0.173356
9.49462e-05
0.0016463
0.190566
5.6415e-05
0.00170427
0.202638
-2.42306e-08
0.00173387
0.208858
-5.64621e-05
0.00173387
0.208858
-9.49894e-05
0.00170427
0.202638
-0.000101717
0.00164631
0.190566
-6.98521e-05
0.00156185
0.173356
0.00145555
0.151952
-2.58469e-08
8.60571e-05
0.134281
-3.74385e-09
0.00119858
0.00012493
0.155694
0.00127121
0.000116448
0.172684
0.00132893
6.90576e-05
0.184508
0.00136866
-2.58694e-08
0.190571
0.00138889
-6.91079e-05
0.190571
0.00138889
-0.000116494
0.184508
0.00136866
-0.000124969
0.172684
0.00132894
-8.60883e-05
0.155694
0.00127121
0.134281
-2.67433e-08
0.00119859
-4.01744e-07
2.03729e-05
0.0285657
-1.18531e-10
-6.17757e-07
2.25656e-05
0.0315247
-4.95405e-07
2.45674e-05
0.0340129
-2.74809e-07
2.62133e-05
0.0358126
-7.96184e-10
2.71008e-05
0.0367572
2.73231e-07
2.71009e-05
0.0367572
4.93887e-07
2.62135e-05
0.0358126
6.16325e-07
2.45677e-05
0.0340129
4.00396e-07
2.2566e-05
0.0315247
2.03732e-05
0.0285657
-1.27014e-09
-5.16863e-07
9.13191e-05
0.0768411
-3.27083e-10
-8.77246e-07
0.000101655
0.0848274
-7.30911e-07
0.000110852
0.0915223
-3.99733e-07
0.000118008
0.0963529
-2.64334e-09
0.000121869
0.0988847
3.9452e-07
0.000121869
0.0988847
7.25934e-07
0.000118009
0.0963529
8.72607e-07
0.000110853
0.0915223
5.12559e-07
0.000101656
0.0848273
9.13201e-05
0.0768411
-3.92728e-09
3.45917e-07
0.000202899
0.114216
-5.50821e-10
3.18005e-07
0.000226051
0.126269
3.52252e-07
0.00024638
0.136332
2.45638e-07
0.00026184
0.143575
-4.70538e-09
0.000270157
0.147366
-2.54889e-07
0.000270157
0.147366
-3.61038e-07
0.000261841
0.143575
-3.25918e-07
0.000246382
0.136332
-3.52557e-07
0.000226053
0.126268
0.000202902
0.114216
-6.54327e-09
2.27446e-06
0.000334606
0.141442
-8.0304e-10
3.20759e-06
0.00037215
0.156692
3.05271e-06
0.000404848
0.169367
1.85299e-06
0.00042933
0.178462
-6.91905e-09
0.000442432
0.183214
-1.86657e-06
0.000442433
0.183214
-3.06552e-06
0.000429332
0.178462
-3.21919e-06
0.000404852
0.169367
-2.28459e-06
0.000372153
0.156692
0.00033461
0.141441
-9.2408e-09
5.43169e-06
0.000462118
0.159274
-1.07621e-09
7.91286e-06
0.000512248
0.176946
7.47516e-06
0.000555477
0.191554
4.49103e-06
0.000587401
0.202002
-9.22153e-09
0.000604382
0.20745
-4.50909e-06
0.000604383
0.20745
-7.4921e-06
0.000587404
0.202002
-7.92804e-06
0.000555481
0.191554
-5.44475e-06
0.000512253
0.176946
0.000462123
0.159273
-1.17705e-08
9.77355e-06
0.000562549
0.168475
-1.37566e-09
1.43584e-05
0.000620627
0.187882
1.35451e-05
0.000670081
0.203828
8.11354e-06
0.0007061
0.21519
-1.15347e-08
0.000725122
0.221102
-8.13609e-06
0.000725123
0.221102
-1.35661e-05
0.000706103
0.21519
-1.4377e-05
0.000670085
0.203828
-9.78935e-06
0.000620633
0.187882
0.000562555
0.168475
-1.40709e-08
1.51573e-05
0.000618588
0.169814
-1.71055e-09
2.23063e-05
0.000678363
0.190358
2.10199e-05
0.000728461
0.20713
1.25684e-05
0.000764409
0.219031
-1.37658e-08
0.000783236
0.225206
-1.25953e-05
0.000783237
0.225206
-2.10449e-05
0.000764413
0.219031
-2.23282e-05
0.000728466
0.20713
-1.51756e-05
0.000678369
0.190358
0.000618594
0.169814
-1.61069e-08
2.13981e-05
0.000621174
0.164058
-2.06485e-09
3.14458e-05
0.000676264
0.185239
2.95559e-05
0.000721556
0.202412
1.76316e-05
0.000753501
0.214536
-1.58102e-08
0.000770062
0.220808
-1.76624e-05
0.000770063
0.220808
-2.95844e-05
0.000753504
0.214536
-3.14706e-05
0.000721561
0.202412
-2.14185e-05
0.00067627
0.185239
0.00062118
0.164058
-1.78209e-08
2.84203e-05
0.000570452
0.151975
-2.39865e-09
4.14273e-05
0.000615891
0.173403
3.87121e-05
0.000652205
0.190638