/*--------------------------------*- C++ -*----------------------------------*\
| =========                 |                                                 |
| \\      /  F ield         | OpenFOAM: The Open Source CFD Toolbox           |
|  \\    /   O peration     | Version:  2106                                  |
|   \\  /    A nd           | Website:  www.openfoam.com                      |
|    \\/     M anipulation  |                                                 |
\*---------------------------------------------------------------------------*/
FoamFile
{
    version     2.0;
    format      ascii;
    arch        "LSB;label=32;scalar=64";
    class       volVectorField;
    location    "0.88";
    object      U;
}
// * * * * * * * * * * * * * * * * * * * * * * * * * * * * * * * * * * * * * //

dimensions      [0 1 -1 0 0 0 0];

internalField   nonuniform List<vector> 
10000
(
(0.0630548 0.0742998 0.34785)
(0.0537782 0.0844993 0.362445)
(0.0401624 0.0937224 0.373899)
(0.0249152 0.100155 0.38181)
(0.00844366 0.103481 0.38583)
(-0.00844367 0.103481 0.38583)
(-0.0249152 0.100155 0.38181)
(-0.0401624 0.0937224 0.373899)
(-0.0537782 0.0844993 0.362445)
(-0.0630548 0.0742998 0.34785)
(0.173412 0.205735 0.733606)
(0.146382 0.233191 0.753409)
(0.109283 0.257339 0.768163)
(0.0676138 0.274056 0.778138)
(0.0228871 0.282677 0.783126)
(-0.0228871 0.282677 0.783126)
(-0.0676138 0.274056 0.778138)
(-0.109283 0.257339 0.768163)
(-0.146382 0.233191 0.753409)
(-0.173412 0.205735 0.733606)
(0.224382 0.266433 0.931051)
(0.187287 0.29839 0.947001)
(0.138928 0.326295 0.958151)
(0.0855301 0.345386 0.96551)
(0.0288806 0.355168 0.96912)
(-0.0288806 0.355168 0.96912)
(-0.0855302 0.345386 0.96551)
(-0.138928 0.326295 0.958151)
(-0.187287 0.29839 0.947001)
(-0.224382 0.266433 0.931051)
(0.239518 0.283948 1.03094)
(0.197962 0.314061 1.04152)
(0.14594 0.340409 1.04824)
(0.0894311 0.358232 1.05254)
(0.0301294 0.367305 1.05459)
(-0.0301295 0.367305 1.05459)
(-0.0894312 0.358232 1.05254)
(-0.14594 0.340409 1.04824)
(-0.197962 0.314061 1.04152)
(-0.239518 0.283948 1.03094)
(0.237565 0.281132 1.07966)
(0.194735 0.307334 1.08566)
(0.142806 0.330399 1.08881)
(0.0871598 0.345867 1.0907)
(0.0293076 0.353693 1.09156)
(-0.0293077 0.353693 1.09156)
(-0.0871598 0.345867 1.0907)
(-0.142806 0.330399 1.08881)
(-0.194735 0.307334 1.08566)
(-0.237565 0.281132 1.07966)
(0.226472 0.267517 1.1009)
(0.184238 0.289091 1.1035)
(0.134469 0.308235 1.10416)
(0.0817683 0.320999 1.1044)
(0.0274464 0.32742 1.10445)
(-0.0274465 0.32742 1.10445)
(-0.0817684 0.320999 1.1044)
(-0.134469 0.308235 1.10416)
(-0.184238 0.289091 1.1035)
(-0.226472 0.267517 1.1009)
(0.21001 0.247438 1.10756)
(0.169553 0.264143 1.10784)
(0.123196 0.279114 1.10691)
(0.074651 0.289076 1.10615)
(0.0250154 0.294067 1.10571)
(-0.0250155 0.294067 1.10571)
(-0.0746511 0.289076 1.10615)
(-0.123196 0.279114 1.10691)
(-0.169553 0.264143 1.10784)
(-0.21001 0.247438 1.10756)
(0.190527 0.223642 1.10686)
(0.152638 0.235521 1.10567)
(0.110438 0.246307 1.10386)
(0.0667026 0.253519 1.10254)
(0.0223166 0.257132 1.10185)
(-0.0223167 0.257132 1.10185)
(-0.0667027 0.253519 1.10254)
(-0.110438 0.246307 1.10386)
(-0.152638 0.235521 1.10567)
(-0.190527 0.223642 1.10686)
(0.169567 0.197928 1.10284)
(0.134877 0.205171 1.10076)
(0.0971918 0.211898 1.09853)
(0.0585186 0.216528 1.09697)
(0.0195487 0.218867 1.09618)
(-0.0195488 0.218867 1.09618)
(-0.0585187 0.216528 1.09697)
(-0.0971919 0.211898 1.09853)
(-0.134877 0.205171 1.10076)
(-0.169567 0.197928 1.10284)
(0.148301 0.171961 1.09775)
(0.117478 0.173067 1.09521)
(0.0840681 0.17637 1.09283)
(0.0504303 0.178777 1.09123)
(0.0168168 0.180015 1.09043)
(-0.016817 0.180015 1.09043)
(-0.0504305 0.178777 1.09123)
(-0.0840682 0.17637 1.09283)
(-0.117478 0.173067 1.09521)
(-0.148301 0.171961 1.09775)
(0.0112848 0.014415 0.268641)
(0.0094808 0.017732 0.281001)
(0.00715881 0.0203966 0.291122)
(0.00453174 0.0222233 0.298167)
(0.00155053 0.023175 0.301773)
(-0.00155055 0.023175 0.301773)
(-0.00453176 0.0222233 0.298167)
(-0.00715882 0.0203966 0.291122)
(-0.00948081 0.017732 0.281001)
(-0.0112848 0.014415 0.268641)
(0.0548523 0.0663685 0.63451)
(0.0471013 0.07985 0.656629)
(0.0360479 0.0914019 0.674367)
(0.0227897 0.0995872 0.686566)
(0.00779883 0.103884 0.692758)
(-0.00779887 0.103884 0.692758)
(-0.0227897 0.0995872 0.686566)
(-0.036048 0.0914019 0.674367)
(-0.0471014 0.07985 0.656629)
(-0.0548523 0.0663685 0.63451)
(0.0985661 0.11773 0.88342)
(0.0840947 0.139238 0.907429)
(0.0640213 0.157696 0.926261)
(0.0402323 0.170723 0.939056)
(0.013727 0.177527 0.945499)
(-0.0137271 0.177527 0.945499)
(-0.0402324 0.170723 0.939056)
(-0.0640214 0.157696 0.926261)
(-0.0840948 0.139238 0.907429)
(-0.0985662 0.11773 0.88342)
(0.134937 0.159986 1.0525)
(0.114149 0.186327 1.07467)
(0.0863433 0.208825 1.09163)
(0.0539525 0.22459 1.10302)
(0.0183561 0.232777 1.10871)
(-0.0183562 0.232777 1.10871)
(-0.0539526 0.22459 1.10302)
(-0.0863434 0.208825 1.09163)
(-0.114149 0.186327 1.07467)
(-0.134937 0.159986 1.0525)
(0.16098 0.189779 1.16642)
(0.135016 0.217871 1.18518)
(0.101488 0.241703 1.19916)
(0.0630897 0.258283 1.20841)
(0.0214097 0.266846 1.213)
(-0.0214099 0.266846 1.213)
(-0.0630898 0.258283 1.20841)
(-0.101488 0.241703 1.19916)
(-0.135016 0.217871 1.18518)
(-0.16098 0.189779 1.16642)
(0.17674 0.207282 1.24205)
(0.146981 0.234619 1.25698)
(0.109818 0.257609 1.26778)
(0.0679421 0.273496 1.27483)
(0.0230016 0.281658 1.27829)
(-0.0230018 0.281658 1.27829)
(-0.0679423 0.273496 1.27483)
(-0.109818 0.257609 1.26778)
(-0.146982 0.234619 1.25698)
(-0.17674 0.207282 1.24205)
(0.183285 0.21385 1.29129)
(0.151124 0.238516 1.30261)
(0.112252 0.259018 1.31052)
(0.0691351 0.2731 1.3156)
(0.023353 0.280302 1.31806)
(-0.0233532 0.280302 1.31806)
(-0.0691353 0.2731 1.3156)
(-0.112252 0.259018 1.31052)
(-0.151124 0.238516 1.30261)
(-0.183285 0.21385 1.29129)
(0.181965 0.211125 1.32257)
(0.148738 0.231731 1.33077)
(0.109853 0.24858 1.33628)
(0.0673701 0.260099 1.33975)
(0.0227085 0.265971 1.34141)
(-0.0227088 0.265971 1.34141)
(-0.0673703 0.260099 1.33975)
(-0.109854 0.24858 1.33628)
(-0.148738 0.231731 1.33077)
(-0.181965 0.211125 1.32257)
(0.17425 0.200795 1.34176)
(0.141253 0.2164 1.34746)
(0.103735 0.228799 1.35112)
(0.0633461 0.237293 1.35335)
(0.0213069 0.241619 1.3544)
(-0.0213071 0.241619 1.3544)
(-0.0633464 0.237293 1.35335)
(-0.103735 0.228799 1.35112)
(-0.141253 0.2164 1.34746)
(-0.17425 0.200795 1.34176)
(0.161719 0.185688 1.35301)
(0.130225 0.193681 1.35686)
(0.0948534 0.201278 1.35914)
(0.057631 0.206519 1.36047)
(0.019337 0.209185 1.36107)
(-0.0193374 0.209185 1.36107)
(-0.0576313 0.206519 1.36047)
(-0.0948537 0.201278 1.35914)
(-0.130225 0.193681 1.35686)
(-0.161719 0.185688 1.35301)
(0.00113122 0.00126336 0.158882)
(0.00114242 0.00161332 0.167248)
(0.000890559 0.00202483 0.174233)
(0.000596127 0.00232964 0.179177)
(0.000207724 0.00249855 0.181737)
(-0.000207742 0.00249855 0.181737)
(-0.000596144 0.00232964 0.179177)
(-0.000890574 0.00202482 0.174233)
(-0.00114243 0.00161331 0.167248)
(-0.00113123 0.00126335 0.158882)
(0.0181653 0.0210787 0.445126)
(0.016336 0.025716 0.465488)
(0.0127853 0.0300798 0.482211)
(0.00821149 0.0333029 0.493948)
(0.00282951 0.0350344 0.499989)
(-0.00282956 0.0350344 0.499989)
(-0.00821154 0.0333029 0.493948)
(-0.0127854 0.0300798 0.482211)
(-0.0163361 0.025716 0.465488)
(-0.0181653 0.0210787 0.445126)
(0.0414074 0.0481976 0.690624)
(0.0365712 0.0579058 0.718419)
(0.0284119 0.0667609 0.74088)
(0.0180988 0.0732359 0.756515)
(0.00621413 0.0766841 0.764522)
(-0.00621422 0.0766841 0.764522)
(-0.0180989 0.0732358 0.756515)
(-0.028412 0.0667608 0.74088)
(-0.0365713 0.0579058 0.718419)
(-0.0414075 0.0481976 0.690624)
(0.0664842 0.0774482 0.894839)
(0.05795 0.0917439 0.926264)
(0.0446889 0.104534 0.951237)
(0.0282853 0.113788 0.968473)
(0.00968223 0.118681 0.977256)
(-0.00968236 0.118681 0.977256)
(-0.0282854 0.113788 0.968473)
(-0.044689 0.104534 0.951237)
(-0.0579501 0.0917439 0.926264)
(-0.0664843 0.0774481 0.894838)
(0.0888874 0.103428 1.06123)
(0.0765987 0.120831 1.09348)
(0.0586514 0.136173 1.11867)
(0.0369142 0.147166 1.13591)
(0.0126017 0.15294 1.14465)
(-0.0126018 0.15294 1.14465)
(-0.0369144 0.147166 1.13591)
(-0.0586515 0.136173 1.11867)
(-0.0765988 0.120831 1.09348)
(-0.0888875 0.103428 1.06123)
(0.106356 0.123435 1.19473)
(0.090692 0.142181 1.22591)
(0.0689678 0.15848 1.24985)
(0.0431815 0.170056 1.26609)
(0.0147038 0.1761 1.27429)
(-0.014704 0.1761 1.27429)
(-0.0431817 0.170056 1.26609)
(-0.068968 0.15848 1.24985)
(-0.0906922 0.142181 1.22591)
(-0.106356 0.123435 1.19473)
(0.118034 0.136494 1.30053)
(0.0996282 0.154882 1.32947)
(0.0752555 0.170632 1.35133)
(0.0468838 0.181729 1.36605)
(0.0159255 0.187491 1.37344)
(-0.0159257 0.187491 1.37344)
(-0.0468841 0.181729 1.36605)
(-0.0752558 0.170632 1.35133)
(-0.0996284 0.154882 1.32947)
(-0.118034 0.136494 1.30053)
(0.123793 0.142493 1.38342)
(0.10344 0.159035 1.40953)
(0.0776167 0.172953 1.42897)
(0.0481199 0.182686 1.44195)
(0.016306 0.187717 1.44844)
(-0.0163063 0.187717 1.44844)
(-0.0481202 0.182686 1.44195)
(-0.077617 0.172953 1.42897)
(-0.10344 0.159035 1.40953)
(-0.123794 0.142493 1.38342)
(0.124038 0.141873 1.44756)
(0.102623 0.155379 1.47073)
(0.0764697 0.166413 1.48771)
(0.047165 0.174096 1.49894)
(0.0159416 0.17805 1.50452)
(-0.0159419 0.17805 1.50452)
(-0.0471653 0.174096 1.49894)
(-0.07647 0.166413 1.48771)
(-0.102623 0.155379 1.47073)
(-0.124038 0.141873 1.44756)
(0.119592 0.136462 1.49632)
(0.0979789 0.14458 1.51704)
(0.0722901 0.151923 1.53167)
(0.0443105 0.157009 1.5412)
(0.0149311 0.159612 1.5459)
(-0.0149315 0.159612 1.5459)
(-0.0443108 0.157009 1.5412)
(-0.0722904 0.151923 1.53167)
(-0.0979792 0.14458 1.51704)
(-0.119592 0.136462 1.49632)
(0.000719125 0.000944407 0.138974)
(0.000562135 0.00118415 0.145835)
(0.000385009 0.00135418 0.151421)
(0.000238786 0.00145483 0.155342)
(7.99627e-05 0.00150521 0.157365)
(-7.99793e-05 0.00150521 0.157365)
(-0.000238802 0.00145482 0.155342)
(-0.000385024 0.00135417 0.151421)
(-0.000562149 0.00118414 0.145835)
(-0.000719136 0.000944398 0.138974)
(0.00710044 0.00848983 0.398505)
(0.00616602 0.0104645 0.416712)
(0.00474178 0.0121733 0.431452)
(0.00302532 0.0134001 0.441768)
(0.00103901 0.0140528 0.447078)
(-0.00103907 0.0140528 0.447078)
(-0.00302538 0.0134001 0.441768)
(-0.00474182 0.0121732 0.431452)
(-0.00616607 0.0104645 0.416712)
(-0.00710047 0.0084898 0.398505)
(0.0174152 0.0205624 0.633466)
(0.0151928 0.0250362 0.660345)
(0.0117585 0.0289627 0.681937)
(0.00749134 0.0318136 0.696987)
(0.0025727 0.0333302 0.704711)
(-0.00257279 0.0333302 0.704711)
(-0.00749143 0.0318136 0.696987)
(-0.0117586 0.0289627 0.681937)
(-0.0151929 0.0250362 0.660345)
(-0.0174153 0.0205623 0.633466)
(0.0298815 0.035082 0.841927)
(0.0259833 0.0422043 0.874774)
(0.0200838 0.0484547 0.900912)
(0.0127548 0.0529883 0.91904)
(0.00437413 0.0553926 0.928316)
(-0.00437426 0.0553926 0.928316)
(-0.0127549 0.0529882 0.91904)
(-0.0200839 0.0484547 0.900912)
(-0.0259835 0.0422043 0.874774)
(-0.0298816 0.0350819 0.841927)
(0.0424311 0.0495934 1.02384)
(0.0366684 0.0589093 1.06022)
(0.028229 0.0670383 1.08886)
(0.0178567 0.0729051 1.10862)
(0.00611216 0.0760034 1.11869)
(-0.00611234 0.0760034 1.11869)
(-0.0178569 0.0729051 1.10862)
(-0.0282291 0.0670383 1.08886)
(-0.0366685 0.0589093 1.06022)
(-0.0424312 0.0495933 1.02384)
(0.0535599 0.0623237 1.18038)
(0.0459347 0.0730279 1.21824)
(0.0351763 0.0822813 1.24772)
(0.0221541 0.0889154 1.26795)
(0.00756686 0.092402 1.27823)
(-0.00756708 0.092402 1.27823)
(-0.0221543 0.0889154 1.26795)
(-0.0351765 0.0822813 1.24772)
(-0.0459349 0.0730279 1.21824)
(-0.0535601 0.0623237 1.18038)
(0.0622737 0.0721228 1.31336)
(0.0529527 0.0832534 1.35109)
(0.040308 0.0927532 1.38014)
(0.0252685 0.0995134 1.39996)
(0.0086108 0.103048 1.41)
(-0.00861106 0.103048 1.41)
(-0.0252688 0.0995134 1.39996)
(-0.0403083 0.0927532 1.38014)
(-0.0529529 0.0832534 1.35109)
(-0.0622739 0.0721228 1.31336)
(0.0679755 0.0783026 1.42484)
(0.0572708 0.0888767 1.46124)
(0.043315 0.0977539 1.48898)
(0.0270221 0.10402 1.5078)
(0.00918602 0.107279 1.51729)
(-0.00918632 0.107279 1.51729)
(-0.0270224 0.10402 1.5078)
(-0.0433153 0.0977539 1.48898)
(-0.057271 0.0888767 1.46124)
(-0.0679757 0.0783025 1.42484)
(0.0704679 0.080597 1.5168)
(0.0588046 0.0897276 1.55121)
(0.0441589 0.0971778 1.57711)
(0.0273998 0.102399 1.59453)
(0.00928906 0.105099 1.60328)
(-0.00928938 0.105099 1.60328)
(-0.0274001 0.102399 1.59453)
(-0.0441592 0.0971778 1.57711)
(-0.0588048 0.0897276 1.55121)
(-0.0704681 0.080597 1.5168)
(0.0699327 0.0798016 1.59094)
(0.0577456 0.0858698 1.62363)
(0.0429222 0.0911437 1.64731)
(0.0264553 0.0948044 1.66303)
(0.00893911 0.0966835 1.67086)
(-0.00893946 0.0966835 1.67086)
(-0.0264557 0.0948044 1.66303)
(-0.0429226 0.0911437 1.64731)
(-0.0577459 0.0858698 1.62362)
(-0.0699329 0.0798016 1.59094)
(0.000131659 0.000144033 0.127956)
(0.000121944 0.000188774 0.134347)
(9.01058e-05 0.000234598 0.139542)
(6.16387e-05 0.000266717 0.143195)
(2.12874e-05 0.000284927 0.14508)
(-2.13017e-05 0.000284926 0.14508)
(-6.16526e-05 0.000266714 0.143195)
(-9.01186e-05 0.000234593 0.139542)
(-0.000121956 0.000188767 0.134347)
(-0.000131669 0.000144025 0.127956)
(0.00253393 0.00293103 0.371076)
(0.00226645 0.00363362 0.388459)
(0.00177526 0.00428069 0.402541)
(0.00114738 0.00476214 0.412423)
(0.000396183 0.00502349 0.417516)
(-0.000396229 0.00502348 0.417516)
(-0.00114742 0.00476213 0.412423)
(-0.0017753 0.00428068 0.402541)
(-0.00226648 0.0036336 0.388459)
(-0.00253396 0.00293101 0.371076)
(0.00690242 0.00800742 0.596484)
(0.00613252 0.00981642 0.62287)
(0.00480689 0.0114592 0.644132)
(0.00308911 0.0126814 0.65901)
(0.00106506 0.0133402 0.666665)
(-0.00106514 0.0133402 0.666665)
(-0.00308919 0.0126814 0.65901)
(-0.00480696 0.0114592 0.644132)
(-0.00613259 0.00981639 0.62287)
(-0.00690247 0.00800738 0.596484)
(0.0126685 0.0146989 0.802666)
(0.0111819 0.0178235 0.835977)
(0.00873941 0.0206347 0.862635)
(0.00559248 0.0227156 0.881226)
(0.00192482 0.0238316 0.890769)
(-0.00192494 0.0238316 0.890769)
(-0.00559259 0.0227156 0.881226)
(-0.00873952 0.0206347 0.862635)
(-0.011182 0.0178235 0.835977)
(-0.0126686 0.0146989 0.802665)
(0.0189492 0.0219507 0.988877)
(0.0166049 0.0263042 1.02709)
(0.0129199 0.0301849 1.05742)
(0.00823286 0.0330384 1.07849)
(0.00282809 0.0345612 1.08928)
(-0.00282824 0.0345612 1.08928)
(-0.00823301 0.0330384 1.07849)
(-0.01292 0.0301848 1.05742)
(-0.016605 0.0263041 1.02709)
(-0.0189493 0.0219506 0.988877)
(0.0249679 0.028841 1.15499)
(0.0217056 0.0341131 1.19622)
(0.0167973 0.0387624 1.22865)
(0.0106564 0.0421556 1.25108)
(0.00365279 0.0439571 1.26255)
(-0.00365298 0.0439571 1.26255)
(-0.0106565 0.0421556 1.25108)
(-0.0167975 0.0387624 1.22865)
(-0.0217057 0.0341131 1.19621)
(-0.024968 0.0288409 1.15499)
(0.0301034 0.0346422 1.30133)
(0.0259434 0.040378 1.34388)
(0.0199545 0.0453705 1.37706)
(0.0125998 0.0489846 1.39991)
(0.00430896 0.0508931 1.41155)
(-0.00430919 0.0508931 1.41155)
(-0.0126 0.0489846 1.39991)
(-0.0199547 0.0453705 1.37706)
(-0.0259436 0.0403779 1.34388)
(-0.0301036 0.0346422 1.30133)
(0.0338977 0.0388178 1.42842)
(0.0289412 0.0444921 1.47091)
(0.0221118 0.0493515 1.50374)
(0.0138916 0.0528371 1.52624)
(0.00473872 0.0546669 1.53765)
(-0.00473898 0.0546669 1.53765)
(-0.0138919 0.052837 1.52624)
(-0.022112 0.0493515 1.50374)
(-0.0289414 0.044492 1.47091)
(-0.0338979 0.0388178 1.42842)
(0.0361038 0.0410588 1.53686)
(0.0305166 0.046155 1.57833)
(0.0231362 0.0503958 1.61002)
(0.0144502 0.0534073 1.63155)
(0.00491463 0.0549771 1.64242)
(-0.00491492 0.0549771 1.64242)
(-0.0144505 0.0534073 1.63155)
(-0.0231365 0.0503958 1.61002)
(-0.0305168 0.046155 1.57833)
(-0.036104 0.0410588 1.53686)
(0.0366925 0.041675 1.62703)
(0.0306351 0.0452769 1.66764)
(0.0229673 0.0483928 1.6975)
(0.0142388 0.0505738 1.7175)
(0.00482482 0.0516994 1.72751)
(-0.00482512 0.0516994 1.72751)
(-0.0142391 0.0505738 1.7175)
(-0.0229675 0.0483928 1.69749)
(-0.0306354 0.0452769 1.66764)
(-0.0366927 0.041675 1.62703)
(8.03052e-05 0.000108363 0.124964)
(5.62475e-05 0.000137462 0.131155)
(3.45015e-05 0.000154323 0.136156)
(2.11127e-05 0.000162663 0.139666)
(6.85951e-06 0.000166658 0.141476)
(-6.87102e-06 0.000166657 0.141476)
(-2.11241e-05 0.000162661 0.139666)
(-3.45116e-05 0.000154319 0.136156)
(-5.62567e-05 0.000137457 0.131155)
(-8.0313e-05 0.000108357 0.124964)
(0.00104881 0.00125243 0.362509)
(0.000900987 0.00155341 0.379443)
(0.0006891 0.00180676 0.393104)
(0.000440096 0.00198863 0.40268)
(0.000151064 0.0020859 0.407612)
(-0.000151102 0.0020859 0.407612)
(-0.000440133 0.00198862 0.40268)
(-0.000689133 0.00180675 0.393104)
(-0.000901017 0.0015534 0.379443)
(-0.00104884 0.00125241 0.362509)
(0.00289064 0.00340236 0.583968)
(0.00252464 0.00418502 0.60992)
(0.00196028 0.00486798 0.63078)
(0.00125426 0.00536932 0.645375)
(0.00043157 0.00563824 0.652884)
(-0.000431636 0.00563823 0.652884)
(-0.00125432 0.00536931 0.645375)
(-0.00196034 0.00486797 0.630779)
(-0.00252469 0.004185 0.60992)
(-0.00289069 0.00340234 0.583968)
(0.00541864 0.00633847 0.788609)
(0.0047458 0.00772744 0.821807)
(0.00369625 0.00895166 0.848356)
(0.00236283 0.0098539 0.866886)
(0.000812956 0.0103373 0.876405)
(-0.000813052 0.0103373 0.876405)
(-0.00236293 0.00985388 0.866886)
(-0.00369634 0.00895164 0.848356)
(-0.00474588 0.00772741 0.821807)
(-0.00541871 0.00633844 0.788609)
(0.0083047 0.00966961 0.975933)
(0.0072571 0.0116672 1.01461)
(0.0056451 0.0134283 1.04535)
(0.00360014 0.0147235 1.06674)
(0.00123738 0.0154155 1.07771)
(-0.00123751 0.0154155 1.07771)
(-0.00360027 0.0147235 1.06674)
(-0.00564522 0.0134283 1.04535)
(-0.00725721 0.0116672 1.01461)
(-0.00830479 0.00966958 0.975932)
(0.0112145 0.0129999 1.14567)
(0.00975133 0.0154978 1.18811)
(0.00755877 0.017688 1.22159)
(0.00480464 0.0192909 1.24482)
(0.00164873 0.020144 1.25671)
(-0.00164889 0.020144 1.25671)
(-0.0048048 0.0192909 1.24482)
(-0.00755891 0.017688 1.22159)
(-0.00975146 0.0154978 1.18811)
(-0.0112146 0.0129999 1.14566)
(0.0138392 0.0159673 1.29771)
(0.011952 0.0187702 1.3423)
(0.00921886 0.021204 1.37721)
(0.00583624 0.022973 1.40135)
(0.00199871 0.02391 1.41367)
(-0.0019989 0.02391 1.41367)
(-0.00583642 0.0229729 1.40135)
(-0.00921903 0.021204 1.37721)
(-0.0119521 0.0187702 1.3423)
(-0.0138393 0.0159672 1.29771)
(0.015918 0.0182646 1.43205)
(0.0136359 0.0211213 1.47735)
(0.0104546 0.0235676 1.51255)
(0.00658755 0.0253301 1.53678)
(0.00225063 0.0262585 1.54911)
(-0.00225085 0.0262585 1.54911)
(-0.00658776 0.0253301 1.53678)
(-0.0104548 0.0235675 1.51255)
(-0.013636 0.0211213 1.47735)
(-0.0159182 0.0182645 1.43205)
(0.017279 0.0196769 1.54859)
(0.0146641 0.0223209 1.59357)
(0.0111599 0.024525 1.62816)
(0.00699154 0.0260965 1.65177)
(0.00238161 0.026918 1.66373)
(-0.00238185 0.026918 1.66373)
(-0.00699177 0.0260965 1.65177)
(-0.0111602 0.024525 1.62816)
(-0.0146643 0.0223209 1.59357)
(-0.0172791 0.0196769 1.54859)
(0.0178568 0.0203047 1.64704)
(0.0149684 0.0222567 1.6918)
(0.0112656 0.0239305 1.72494)
(0.00700508 0.0251055 1.74723)
(0.00237722 0.0257133 1.75843)
(-0.00237747 0.0257133 1.75843)
(-0.00700532 0.0251055 1.74723)
(-0.0112659 0.0239305 1.72493)
(-0.0149686 0.0222567 1.6918)
(-0.017857 0.0203047 1.64704)
(1.23876e-05 1.52474e-05 0.123453)
(8.43401e-06 2.08323e-05 0.129576)
(4.73606e-06 2.44977e-05 0.134518)
(3.488e-06 2.65999e-05 0.137989)
(1.16979e-06 2.78206e-05 0.139778)
(-1.17857e-06 2.78199e-05 0.139778)
(-3.49654e-06 2.65979e-05 0.137989)
(-4.74396e-06 2.44947e-05 0.134518)
(-8.44122e-06 2.08281e-05 0.129576)
(-1.23935e-05 1.52425e-05 0.123453)
(0.000364736 0.000426207 0.35824)
(0.000318424 0.000532006 0.375002)
(0.000246646 0.000624297 0.388517)
(0.000159224 0.000692498 0.397994)
(5.49109e-05 0.00072956 0.402876)
(-5.49398e-05 0.000729558 0.402876)
(-0.000159252 0.000692493 0.397994)
(-0.000246672 0.000624289 0.388517)
(-0.000318448 0.000531994 0.375002)
(-0.000364755 0.000426194 0.35824)
(0.00108918 0.00126729 0.577588)
(0.000960707 0.00156748 0.603351)
(0.000752049 0.00183451 0.624058)
(0.000484163 0.00203396 0.638553)
(0.000167069 0.00214193 0.646012)
(-0.00016712 0.00214193 0.646012)
(-0.000484212 0.00203395 0.638553)
(-0.000752095 0.00183449 0.624057)
(-0.000960749 0.00156746 0.603351)
(-0.00108922 0.00126727 0.577588)
(0.00213564 0.00247831 0.781094)
(0.0018858 0.00303854 0.814211)
(0.00147888 0.00353921 0.840708)
(0.000950134 0.00391327 0.859219)
(0.00032769 0.00411519 0.868732)
(-0.000327765 0.00411519 0.868732)
(-0.000950206 0.00391326 0.859218)
(-0.00147895 0.00353919 0.840708)
(-0.00188586 0.00303851 0.814211)
(-0.0021357 0.00247829 0.781093)
(0.0033821 0.00391296 0.968432)
(0.00297862 0.00474966 1.00726)
(0.00233233 0.00549625 1.03816)
(0.00149453 0.00605214 1.05969)
(0.000514867 0.00635121 1.07074)
(-0.000514966 0.0063512 1.07074)
(-0.00149462 0.00605213 1.05969)
(-0.00233242 0.00549624 1.03816)
(-0.00297871 0.00474964 1.00726)
(-0.00338217 0.00391293 0.968431)
(0.00469011 0.0054068 1.13935)
(0.00411053 0.00648642 1.18228)
(0.0032075 0.00744416 1.21622)
(0.00204851 0.00815333 1.2398)
(0.000704601 0.00853331 1.25188)
(-0.000704724 0.00853331 1.25188)
(-0.00204863 0.00815332 1.2398)
(-0.00320761 0.00744414 1.21621)
(-0.00411063 0.0064864 1.18228)
(-0.0046902 0.00540677 1.13935)
(0.00592003 0.00679566 1.29365)
(0.00515442 0.00804073 1.33912)
(0.00400252 0.0091347 1.37482)
(0.00254602 0.00993894 1.39955)
(0.000873979 0.0103677 1.41219)
(-0.000874125 0.0103677 1.41219)
(-0.00254617 0.00993893 1.39955)
(-0.00400265 0.00913468 1.37482)
(-0.00515454 0.00804071 1.33911)
(-0.00592013 0.00679563 1.29365)
(0.00694431 0.00792903 1.4311)
(0.00599834 0.00922988 1.47769)
(0.00462982 0.0103574 1.51401)
(0.00293105 0.0111786 1.53907)
(0.00100371 0.0116137 1.55184)
(-0.00100387 0.0116137 1.55184)
(-0.00293121 0.0111786 1.53907)
(-0.00462997 0.0103574 1.51401)
(-0.00599848 0.00922986 1.47769)
(-0.00694443 0.00792901 1.4311)
(0.00767055 0.00869306 1.55134)
(0.00656333 0.00992645 1.59799)
(0.00502705 0.0109666 1.634)
(0.00316341 0.0117148 1.65864)
(0.00107992 0.0121079 1.67113)
(-0.00108011 0.0121079 1.67113)
(-0.00316359 0.0117148 1.65864)
(-0.00502722 0.0109666 1.634)
(-0.00656348 0.00992644 1.59799)
(-0.00767069 0.00869304 1.55134)
(0.00805172 0.00912067 1.65373)
(0.00679765 0.0100629 1.70054)
(0.00514598 0.0108694 1.73531)
(0.00321254 0.011439 1.75878)
(0.00109229 0.0117347 1.77059)
(-0.00109248 0.0117347 1.77059)
(-0.00321273 0.011439 1.75878)
(-0.00514616 0.0108694 1.73531)
(-0.00679782 0.0100629 1.70054)
(-0.00805187 0.00912067 1.65373)
(7.81955e-06 1.24403e-05 0.123053)
(3.24219e-06 1.62275e-05 0.129148)
(6.38444e-07 1.73511e-05 0.134064)
(1.5283e-07 1.73768e-05 0.137515)
(-3.08028e-08 1.72869e-05 0.139293)
(2.43492e-08 1.72864e-05 0.139293)
(-1.59077e-07 1.73754e-05 0.137515)
(-6.44227e-07 1.73488e-05 0.134064)
(-3.24754e-06 1.62245e-05 0.129148)
(-7.8239e-06 1.24367e-05 0.123053)
(0.000140211 0.000170376 0.356933)
(0.000116227 0.000213024 0.373617)
(8.71111e-05 0.000246605 0.387057)
(5.52685e-05 0.000270248 0.39648)
(1.88975e-05 0.000282824 0.401333)
(-1.89188e-05 0.000282823 0.401333)
(-5.52892e-05 0.000270244 0.396479)
(-8.71303e-05 0.000246598 0.387057)
(-0.000116245 0.000213016 0.373616)
(-0.000140225 0.000170366 0.356933)
(0.000421665 0.00049895 0.575489)
(0.000364137 0.000619034 0.601153)
(0.000281445 0.000721352 0.621767)
(0.000180006 0.000796501 0.636196)
(6.1921e-05 0.000836885 0.643622)
(-6.19588e-05 0.000836883 0.643622)
(-0.000180042 0.000796495 0.636196)
(-0.000281479 0.000721343 0.621767)
(-0.000364169 0.000619022 0.601153)
(-0.000421691 0.000498935 0.575488)
(0.00083917 0.000982715 0.778506)
(0.000733434 0.00121002 0.811555)
(0.000571905 0.00140868 0.837989)
(0.000366466 0.00155612 0.856458)
(0.000126241 0.0016355 0.865951)
(-0.000126296 0.0016355 0.865951)
(-0.00036652 0.00155611 0.856458)
(-0.000571955 0.00140867 0.837989)
(-0.00073348 0.00121 0.811555)
(-0.000839209 0.000982697 0.778506)
(0.0013521 0.00157309 0.965782)
(0.00118498 0.00191931 1.00463)
(0.000925812 0.00222443 1.03555)
(0.000592876 0.00245114 1.0571)
(0.000204204 0.00257307 1.06816)
(-0.000204277 0.00257307 1.06816)
(-0.000592948 0.00245113 1.05709)
(-0.000925879 0.00222442 1.03555)
(-0.00118504 0.00191929 1.00463)
(-0.00135215 0.00157307 0.965782)
(0.00190787 0.00220777 1.13712)
(0.00166906 0.00266392 1.18021)
(0.00130211 0.00306573 1.21429)
(0.000832055 0.00336335 1.23799)
(0.000286289 0.00352297 1.25014)
(-0.000286381 0.00352296 1.25014)
(-0.000832144 0.00336334 1.23799)
(-0.00130219 0.00306571 1.21429)
(-0.00166913 0.0026639 1.18021)
(-0.00190794 0.00220775 1.13712)
(0.00244806 0.00281804 1.29232)
(0.00213164 0.00335501 1.33812)
(0.00165693 0.00382504 1.37412)
(0.00105529 0.00417115 1.39908)
(0.000362494 0.00435596 1.41185)
(-0.000362603 0.00435596 1.41185)
(-0.00105539 0.00417114 1.39908)
(-0.00165703 0.00382503 1.37412)
(-0.00213173 0.003355 1.33812)
(-0.00244814 0.00281802 1.29232)
(0.00291509 0.00333574 1.43108)
(0.00252128 0.0039081 1.4782)
(0.00194945 0.00440345 1.51499)
(0.00123619 0.00476498 1.54039)
(0.000423682 0.00495688 1.55335)
(-0.000423807 0.00495688 1.55335)
(-0.00123632 0.00476498 1.54039)
(-0.00194956 0.00440344 1.51499)
(-0.00252139 0.00390809 1.4782)
(-0.00291518 0.00333572 1.43108)
(0.00326356 0.00370465 1.55294)
(0.00279822 0.0042583 1.60032)
(0.00214786 0.00472529 1.63695)
(0.00135407 0.00506191 1.66205)
(0.000462678 0.00523905 1.67478)
(-0.000462817 0.00523905 1.67478)
(-0.00135421 0.00506191 1.66205)
(-0.00214799 0.00472529 1.63695)
(-0.00279834 0.00425829 1.60032)
(-0.00326366 0.00370464 1.55294)
(0.00346651 0.00393225 1.65711)
(0.00293311 0.00436656 1.70485)
(0.00222571 0.00473669 1.74038)
(0.00139207 0.00499854 1.76438)
(0.000473745 0.00513468 1.77646)
(-0.000473893 0.00513468 1.77646)
(-0.00139221 0.00499855 1.76438)
(-0.00222585 0.00473669 1.74038)
(-0.00293323 0.00436655 1.70485)
(-0.00346662 0.00393224 1.65711)
(-4.2436e-07 2.14182e-07 0.122874)
(-1.46968e-06 7.12302e-07 0.12896)
(-1.66593e-06 5.40261e-07 0.133868)
(-1.08367e-06 2.26208e-07 0.137313)
(-3.92492e-07 4.7956e-08 0.139089)
(3.87933e-07 4.76126e-08 0.139089)
(1.07926e-06 2.25191e-07 0.137313)
(1.66185e-06 5.38655e-07 0.133868)
(1.4659e-06 7.10143e-07 0.12896)
(4.21313e-07 2.11634e-07 0.122874)
(3.97749e-05 4.78578e-05 0.35636)
(3.27031e-05 6.07974e-05 0.373014)
(2.44931e-05 7.1025e-05 0.386429)
(1.56452e-05 7.83765e-05 0.395834)
(5.35889e-06 8.23401e-05 0.400678)
(-5.374e-06 8.23391e-05 0.400678)
(-1.56599e-05 7.83736e-05 0.395834)
(-2.45068e-05 7.10205e-05 0.386429)
(-3.27157e-05 6.07914e-05 0.373014)
(-3.97852e-05 4.78506e-05 0.35636)
(0.00013623 0.000159927 0.574555)
(0.000117982 0.000200531 0.600178)
(9.16253e-05 0.000235453 0.620757)
(5.88895e-05 0.000261498 0.635163)
(2.02995e-05 0.000275611 0.642575)
(-2.03264e-05 0.00027561 0.642575)
(-5.89156e-05 0.000261494 0.635162)
(-9.16496e-05 0.000235446 0.620757)
(-0.000118004 0.000200522 0.600178)
(-0.000136249 0.000159916 0.574555)
(0.000288316 0.000335425 0.777317)
(0.000253258 0.000416703 0.810332)
(0.000198568 0.000488393 0.836739)
(0.000127807 0.000542276 0.85519)
(4.41174e-05 0.000571488 0.864675)
(-4.4157e-05 0.000571487 0.864674)
(-0.000127846 0.000542271 0.85519)
(-0.000198604 0.000488385 0.836739)
(-0.000253291 0.000416692 0.810332)
(-0.000288344 0.000335412 0.777317)
(0.000483412 0.000559146 0.964498)
(0.000426193 0.000687774 1.00335)
(0.000334917 0.000802154 1.03426)
(0.000215419 0.000888121 1.05581)
(7.43504e-05 0.00093465 1.06688)
(-7.44031e-05 0.000934648 1.06688)
(-0.000215471 0.000888115 1.05581)
(-0.000334965 0.000802145 1.03426)
(-0.000426237 0.000687761 1.00335)
(-0.000483449 0.000559132 0.964498)
(0.000702514 0.000808529 1.13594)
(0.00061861 0.000983088 1.17908)
(0.00048551 0.00113825 1.21321)
(0.000311614 0.00125443 1.23695)
(0.000107444 0.0013171 1.24912)
(-0.00010751 0.0013171 1.24912)
(-0.000311678 0.00125442 1.23695)
(-0.000485571 0.00113824 1.21321)
(-0.000618665 0.000983076 1.17908)
(-0.000702561 0.000808514 1.13594)
(0.000922713 0.00105661 1.29143)
(0.000809047 0.00126719 1.33736)
(0.000632724 0.00145323 1.37348)
(0.000404754 0.00159161 1.39853)
(0.000139326 0.00166593 1.41134)
(-0.000139405 0.00166593 1.41134)
(-0.00040483 0.00159161 1.39853)
(-0.000632796 0.00145322 1.37348)
(-0.000809113 0.00126718 1.33736)
(-0.000922771 0.0010566 1.29143)
(0.00112011 0.00127512 1.43069)
(0.000975783 0.00150442 1.47801)
(0.000759057 0.00170471 1.51499)
(0.000483404 0.00185225 1.54053)
(0.000166015 0.00193098 1.55357)
(-0.000166105 0.00193097 1.55357)
(-0.000483492 0.00185225 1.54053)
(-0.00075914 0.00170471 1.51499)
(-0.00097586 0.00150441 1.47801)
(-0.00112018 0.00127511 1.43069)
(0.00127484 0.00143975 1.55318)
(0.00110084 0.00166606 1.60085)
(0.000849851 0.00185851 1.63774)
(0.000537916 0.00199827 1.66303)
(0.000184148 0.00207213 1.67587)
(-0.000184248 0.00207213 1.67587)
(-0.000538014 0.00199827 1.66303)
(-0.000849943 0.00185851 1.63774)
(-0.00110093 0.00166605 1.60085)
(-0.00127492 0.00143974 1.55318)
(0.00137366 0.00155217 1.65807)
(0.00116938 0.0017345 1.7062)
(0.000891959 0.00188943 1.74205)
(0.00055984 0.00199955 1.76628)
(0.000190835 0.00205697 1.77849)
(-0.000190943 0.00205697 1.77849)
(-0.000559945 0.00199955 1.76628)
(-0.00089206 0.00188942 1.74205)
(-0.00116947 0.0017345 1.7062)
(-0.00137374 0.00155216 1.65807)
(2.30088e-08 7.91818e-07 0.122845)
(-8.39809e-07 1.17996e-06 0.128929)
(-1.04872e-06 1.01054e-06 0.133833)
(-7.613e-07 7.19883e-07 0.137276)
(-2.83235e-07 5.34348e-07 0.13905)
(2.8013e-07 5.34116e-07 0.13905)
(7.58295e-07 7.19183e-07 0.137276)
(1.04594e-06 1.00943e-06 0.133833)
(8.37292e-07 1.1785e-06 0.128929)
(-2.50673e-08 7.90139e-07 0.122845)
(1.13696e-05 1.49307e-05 0.356225)
(8.05058e-06 1.92224e-05 0.372868)
(5.37562e-06 2.1956e-05 0.38627)
(3.22397e-06 2.36893e-05 0.395667)
(1.06478e-06 2.45685e-05 0.400506)
(-1.07512e-06 2.45679e-05 0.400506)
(-3.23397e-06 2.36873e-05 0.395667)
(-5.38493e-06 2.19529e-05 0.38627)
(-8.05901e-06 1.92183e-05 0.372868)
(-1.13766e-05 1.49259e-05 0.356225)