/*--------------------------------*- C++ -*----------------------------------*\
| =========                 |                                                 |
| \\      /  F ield         | OpenFOAM: The Open Source CFD Toolbox           |
|  \\    /   O peration     | Version:  2106                                  |
|   \\  /    A nd           | Website:  www.openfoam.com                      |
|    \\/     M anipulation  |                                                 |
\*---------------------------------------------------------------------------*/
FoamFile
{
    version     2.0;
    format      ascii;
    arch        "LSB;label=32;scalar=64";
    class       surfaceScalarField;
    location    "0.25";
    object      phi;
}
// * * * * * * * * * * * * * * * * * * * * * * * * * * * * * * * * * * * * * //

dimensions      [0 3 -1 0 0 0 0];

oriented        oriented;

internalField   nonuniform List<scalar> 
29100
(
0.00118017
0.150323
0.0810036
-3.25464e-10
0.00145251
0.155191
0.0890187
0.00124632
0.158602
0.0957144
0.000709757
0.160874
0.100507
-3.44718e-09
0.162015
0.103003
-0.000709764
0.162015
0.103003
-0.00124633
0.160874
0.100507
-0.00145252
0.158602
0.0957144
-0.00118017
0.155191
0.0890187
0.150323
0.0810036
-6.02618e-09
0.00236089
0.207914
0.155723
-7.6652e-10
0.00327941
0.212458
0.169276
0.00292462
0.215496
0.180357
0.00169173
0.217388
0.188195
-9.08345e-09
0.218315
0.192244
-0.00169174
0.218315
0.192244
-0.00292463
0.217388
0.188195
-0.00327943
0.215496
0.180357
-0.00236091
0.212458
0.169276
0.207914
0.155723
-1.56209e-08
0.00300767
0.218666
0.185081
-1.14531e-09
0.00425345
0.221507
0.200145
0.00381734
0.223343
0.212271
0.00221065
0.224332
0.22077
-1.40871e-08
0.224788
0.225137
-0.00221067
0.224788
0.225137
-0.00381737
0.224332
0.22077
-0.00425347
0.223343
0.212271
-0.00300769
0.221507
0.200145
0.218666
0.185081
-2.35326e-08
0.00342848
0.205007
0.19224
-1.4656e-09
0.00478127
0.206134
0.207439
0.00428136
0.206791
0.219519
0.00247467
0.206952
0.227925
-1.90374e-08
0.206982
0.232227
-0.00247471
0.206982
0.232227
-0.00428139
0.206952
0.227925
-0.0047813
0.206791
0.219519
-0.00342851
0.206134
0.207439
0.205007
0.19224
-3.02628e-08
0.00364676
0.179686
0.186851
-1.78848e-09
0.00501518
0.179492
0.201672
0.00447763
0.179252
0.213329
0.00258437
0.178823
0.221391
-2.42826e-08
0.178554
0.225503
-0.00258441
0.178554
0.225503
-0.00447768
0.178823
0.221391
-0.00501523
0.179252
0.213329
-0.0036468
0.179492
0.201672
0.179686
0.186851
-3.62413e-08
0.00371771
0.150051
0.174262
-2.13016e-09
0.0050603
0.148986
0.188541
0.00450731
0.148166
0.199678
0.00259959
0.147392
0.207338
-3.00906e-08
0.146958
0.211234
-0.00259965
0.146958
0.211234
-0.00450737
0.147392
0.207338
-0.00506036
0.148166
0.199678
-0.00371776
0.148986
0.188541
0.150051
0.174262
-4.17349e-08
0.00370933
0.120231
0.157622
-2.49145e-09
0.00501125
0.118686
0.171354
0.00445557
0.117554
0.181991
0.00256915
0.11664
0.18927
-3.66352e-08
0.116148
0.192962
-0.00256922
0.116148
0.192962
-0.00445564
0.11664
0.18927
-0.00501132
0.117554
0.181991
-0.00370938
0.118686
0.171354
0.120231
0.157622
-4.69676e-08
0.00365673
0.0924633
0.13879
-2.74877e-09
0.00493122
0.0907167
0.152031
0.00438331
0.0894861
0.162226
0.00252833
0.0885872
0.169169
-4.40524e-08
0.0881226
0.172683
-0.00252841
0.0881226
0.172683
-0.00438339
0.0885872
0.169169
-0.00493129
0.0894861
0.162226
-0.0036568
0.0907167
0.152031
0.0924633
0.13879
-5.18278e-08
0.00360494
0.0678568
0.118848
-3.03807e-09
0.00488572
0.0660867
0.131664
0.00434415
0.0649405
0.141482
0.00250488
0.0641803
0.148139
-5.17315e-08
0.0638031
0.1515
-0.00250498
0.0638031
0.1515
-0.00434424
0.0641803
0.148139
-0.0048858
0.0649405
0.141482
-0.00360501
0.0660867
0.131664
0.0678568
0.118848
-5.59016e-08
0.00380583
0.0984219
-3.97509e-09
0.0466433
0.00505055
0.110879
0.0452571
0.0044344
0.120373
0.0443641
0.00253695
0.126783
0.0438184
-5.83665e-08
0.130011
0.04355
-0.00253706
0.130011
0.04355
-0.0044345
0.126783
0.0438184
-0.00505064
0.120373
0.0443641
-0.0038059
0.110879
0.045257
0.0984219
-5.92618e-08
0.0466433
-0.000240671
0.036274
0.0449702
-4.09051e-10
-0.000242802
0.0394216
0.0495992
-0.00017109
0.0420825
0.0535602
-8.53498e-05
0.0439846
0.0564365
-4.86226e-09
0.0449686
0.0579489
8.53399e-05
0.0449686
0.0579489
0.00017108
0.0439846
0.0564365
0.000242792
0.0420825
0.0535602
0.000240661
0.0394216
0.0495993
0.036274
0.0449702
-9.22875e-09
5.85052e-05
0.079813
0.112125
-8.15243e-10
0.000243361
0.0855099
0.123002
0.000292791
0.0902485
0.132142
0.000196644
0.0935661
0.138709
-1.40368e-08
0.0952697
0.14214
-0.000196673
0.0952697
0.14214
-0.000292818
0.0935661
0.138709
-0.000243389
0.0902485
0.132142
-5.85316e-05
0.0855099
0.123002
0.079813
0.112125
-2.52189e-08
0.00059668
0.110479
0.153819
-1.37878e-09
0.00100524
0.117008
0.168238
0.000984028
0.122366
0.180174
0.000601519
0.126042
0.188677
-2.3073e-08
0.127913
0.193095
-0.000601566
0.127913
0.193095
-0.000984073
0.126042
0.188677
-0.00100528
0.122366
0.180174
-0.000596721
0.117008
0.168238
0.110479
0.153819
-3.9248e-08
0.00119851
0.126098
0.175422
-2.00104e-09
0.00182291
0.132225
0.191598
0.00171452
0.137183
0.20481
0.00102368
0.14051
0.214147
-3.21539e-08
0.142186
0.218977
-0.00102375
0.142186
0.218977
-0.00171458
0.14051
0.214147
-0.00182297
0.137183
0.20481
-0.00119857
0.132225
0.191598
0.126098
0.175422
-5.13408e-08
0.00178088
0.128557
0.182611
-2.75476e-09
0.00259046
0.133612
0.199475
0.0023917
0.137632
0.213079
0.00141195
0.140258
0.222623
-4.16528e-08
0.141564
0.227538
-0.00141203
0.141564
0.227538
-0.00239178
0.140258
0.222623
-0.00259054
0.137632
0.213079
-0.00178095
0.133612
0.199475
0.128557
0.182611
-6.1825e-08
0.00230033
0.121009
0.17951
-3.66481e-09
0.00326239
0.124752
0.196438
0.0029796
0.127652
0.209941
0.00174765
0.129482
0.219346
-5.18141e-08
0.130375
0.22417
-0.00174776
0.130375
0.22417
-0.0029797
0.129482
0.219346
-0.00326248
0.127652
0.209941
-0.00230041
0.124752
0.196438
0.121009
0.17951
-7.08462e-08
0.00273493
0.106754
0.169142
-4.73004e-09
0.00382413
0.10922
0.185797
0.00347159
0.111048
0.198948
0.00202899
0.112148
0.208046
-6.25985e-08
0.112671
0.212695
-0.00202911
0.112671
0.212695
-0.0034717
0.112148
0.208046
-0.00382423
0.111048
0.198948
-0.00273502
0.10922
0.185797
0.106754
0.169142
-7.85808e-08
0.00308018
0.0887367
0.153728
-5.70416e-09
0.0042874
0.0900893
0.169954
0.00388361
0.091027
0.18265
0.0022662
0.0915565
0.191378
-7.38716e-08
0.0918003
0.195821
-0.00226635
0.0918003
0.195821
-0.00388374
0.0915565
0.191378
-0.00428751
0.091027
0.18265
-0.00308028
0.0900893
0.169954
0.0887367
0.153728
-8.4886e-08
0.00337239
0.0693302
0.134882
-6.87762e-09
0.0047037
0.0697879
0.150634
0.00425617
0.0700985
0.162858
0.00247986
0.0702612
0.171211
-8.42841e-08
0.0703337
0.175446
-0.00248002
0.0703337
0.175446
-0.00425632
0.0702612
0.171211
-0.00470383
0.0700985
0.162858
-0.0033725
0.0697879
0.150634
0.0693302
0.134882
-8.86413e-08
0.00376629
0.113764
-8.97794e-09
0.0502222
0.00520468
0.129068
0.0501603
0.00467064
0.140843
0.0501622
0.0027054
0.148841
0.0501682
-9.21401e-08
0.152883
0.0501673
-0.00270558
0.152883
0.0501673
-0.0046708
0.148841
0.0501682
-0.00520482
0.140843
0.0501622
-0.0037664
0.129068
0.0501603
0.113764
-9.0096e-08
0.0502222
3.91887e-05
0.00970385
0.0352272
-4.28465e-10
3.49923e-05
0.0107073
0.0388962
2.90475e-05
0.0115598
0.0420063
1.59673e-05
0.0121927
0.0442569
-4.69502e-09
0.0125262
0.0454387
-1.59767e-05
0.0125262
0.0454387
-2.90572e-05
0.0121927
0.0442569
-3.50019e-05
0.0115598
0.0420063
-3.91985e-05
0.0107073
0.0388962
0.00970385
0.0352272
-9.52741e-09
0.00027446
0.0293039
0.0922507
-1.02046e-09
0.000371327
0.0319096
0.101703
0.000330789
0.0340912
0.109651
0.000192606
0.0356634
0.115377
-1.40797e-08
0.0364846
0.118374
-0.000192635
0.0364846
0.118374
-0.000330818
0.0356634
0.115377
-0.000371356
0.0340912
0.109651
-0.000274488
0.0319096
0.101703
0.0293039
0.0922507
-2.65051e-08
0.000580914
0.0492786
0.133263
-1.64854e-09
0.000821854
0.0530825
0.146825
0.000742884
0.0562226
0.158122
0.000434848
0.0584336
0.166215
-2.35607e-08
0.059578
0.170437
-0.000434895
0.059578
0.170437
-0.000742931
0.0584336
0.166215
-0.000821899
0.0562227
0.158122
-0.000580958
0.0530825
0.146825
0.0492786
0.133263
-4.14354e-08
0.000928748
0.0641189
0.159653
-2.38247e-09
0.00132931
0.0684069
0.175873
0.00121175
0.0719003
0.18925
0.000710779
0.0743091
0.198773
-3.31555e-08
0.0755437
0.203723
-0.000710846
0.0755437
0.203723
-0.00121181
0.0743091
0.198773
-0.00132937
0.0719003
0.18925
-0.000928805
0.0684069
0.175873
0.0641189
0.159653
-5.42106e-08
0.00129304
0.0719956
0.173441
-3.29628e-09
0.00184711
0.0761306
0.191197
0.00168803
0.0794506
0.205688
0.000990409
0.0816919
0.215937
-4.3103e-08
0.082828
0.221244
-0.000990494
0.082828
0.221244
-0.00168811
0.0816919
0.215937
-0.00184719
0.0794506
0.205688
-0.00129311
0.0761306
0.191197
0.0719956
0.173441
-6.50115e-08
0.00165411
0.0730548
0.176796
-4.44306e-09
0.00234651
0.0766052
0.195271
0.00214333
0.0794019
0.210193
0.00125679
0.081247
0.220678
-5.35277e-08
0.0821707
0.226084
-0.0012569
0.0821707
0.226084
-0.00214343
0.0812471
0.220678
-0.0023466
0.0794019
0.210193
-0.00165419
0.0766052
0.195271
0.0730548
0.176796
-7.38249e-08
0.00199006
0.0684498
0.171757
-5.84585e-09
0.00280536
0.0711939
0.190393
0.00255979
0.0732993
0.205296
0.00150012
0.0746545
0.215699
-6.42148e-08
0.0753238
0.221042
-0.00150025
0.0753238
0.221042
-0.00255991
0.0746545
0.215698
-0.00280547
0.0732993
0.205296
-0.00199015
0.0711939
0.190393
0.0684498
0.171757
-8.06645e-08
0.00228625
0.0597583
0.160133
-7.25808e-09
0.00321586
0.0616371
0.178581
0.00293322
0.0630366
0.193196
0.0017183
0.0639173
0.20333
-7.48117e-08
0.0643473
0.208515
-0.00171845
0.0643473
0.208515
-0.00293336
0.0639173
0.20333
-0.00321597
0.0630366
0.193196
-0.00228635
0.0616371
0.178581
0.0597583
0.160133
-8.53932e-08
0.00255579
0.0486148
0.14347
-8.98308e-09
0.0035962
0.0496895
0.161541
0.00327606
0.0504852
0.17573
0.00191673
0.0509832
0.185504
-8.37168e-08
0.0512259
0.190485
-0.0019169
0.0512259
0.190485
-0.00327621
0.0509832
0.185504
-0.00359633
0.0504852
0.17573
-0.00255589
0.0496895
0.161541
0.0486148
0.14347
-8.67265e-08
0.00286522
0.123048
-1.16326e-08
0.0364651
0.00399781
0.140689
0.0369355
0.00361951
0.154393
0.0373142
0.00210845
0.163768
0.0375672
-8.91641e-08
0.168527
0.0376911
-0.00210863
0.168527
0.0376911
-0.00361967
0.163768
0.0375673
-0.00399794
0.154393
0.0373142
-0.00286532
0.140689
0.0369355
0.123048
-8.49526e-08
0.0364651
-3.14856e-05
0.00384302
0.0314157
-4.05916e-10
-4.50304e-05
0.00423123
0.0346785
-3.66571e-05
0.00456141
0.0374365
-2.03229e-05
0.0048068
0.0394338
-4.00787e-09
0.00493531
0.0404831
2.03149e-05
0.00493531
0.0404831
3.66489e-05
0.0048068
0.0394338
4.50219e-05
0.00456141
0.0374365
3.14769e-05
0.00423123
0.0346785
0.00384302
0.0314157
-8.2613e-09
5.33177e-06
0.0118431
0.0842452
-1.02071e-09
9.74486e-06
0.0129709
0.0929591
1.37768e-05
0.013928
0.100281
1.05568e-05
0.0146248
0.105562
-1.22271e-08
0.0149901
0.10833
-1.05813e-05
0.0149901
0.10833
-1.38013e-05
0.0146248
0.105562
-9.76763e-06
0.013928
0.100281
-5.35303e-06
0.0129709
0.0929591
0.0118431
0.0842452
-2.29044e-08
0.000107912
0.0209451
0.124054
-1.72933e-09
0.000163214
0.0227952
0.136945
0.000156659
0.0243538
0.147703
9.54765e-05
0.0254709
0.15543
-2.04601e-08
0.0260537
0.159469
-9.55174e-05
0.0260537
0.159469
-0.000156699
0.0254709
0.15543
-0.000163254
0.0243538
0.147703
-0.00010795
0.0227952
0.136945
0.0209452
0.124054
-3.66431e-08
0.000262563
0.0288457
0.151489
-2.51316e-09
0.0003904
0.0311693
0.167371
0.000367467
0.033106
0.180521
0.000220165
0.0344726
0.189918
-2.881e-08
0.0351808
0.194816
-0.000220223
0.0351808
0.194816
-0.000367523
0.0344726
0.189918
-0.000390454
0.033106
0.180521
-0.000262614
0.0311693
0.167371
0.0288458
0.151489
-4.81763e-08
0.00045343
0.0341628
0.167671
-3.46174e-09
0.000664445
0.0366365
0.185519
0.000620393
0.0386697
0.200168
0.000369189
0.0400809
0.21058
-3.7368e-08
0.0408062
0.215988
-0.000369263
0.0408062
0.215988
-0.000620464
0.0400809
0.21058
-0.000664513
0.0386697
0.200168
-0.000453492
0.0366365
0.185519
0.0341628
0.167671
-5.76748e-08
0.000665083
0.0363541
0.17394
-4.64052e-09
0.000962398
0.0386861
0.192924
0.0008936
0.0405673
0.208364
0.000529652
0.0418499
0.219272
-4.61415e-08
0.0425029
0.224917
-0.000529743
0.0425029
0.224917
-0.000893687
0.04185
0.219272
-0.000962478
0.0405673
0.208364
-0.000665154
0.0386861
0.192924
0.0363541
0.17394
-6.51305e-08
0.000881394
0.0355072
0.171722
-6.08177e-09
0.00126429
0.0374866
0.19121
0.00116954
0.0390453
0.206913
0.000691466
0.0400883
0.217938
-5.4856e-08
0.040614
0.223622
-0.000691574
0.040614
0.223622
-0.00116964
0.0400883
0.217938
-0.00126438
0.0390454
0.206913
-0.000881471
0.0374866
0.19121
0.0355072
0.171722
-7.04911e-08
0.00109062
0.0321236
0.162426
-7.59999e-09
0.00155863
0.0336311
0.181969
0.00143848
0.0347878
0.197573
0.000848906
0.0355486
0.20846
-6.3115e-08
0.0359286
0.21405
-0.000849029
0.0359286
0.21405
-0.0014386
0.0355486
0.20846
-0.00155873
0.0347878
0.197573
-0.0010907
0.0336312
0.181969
0.0321236
0.162426
-7.36456e-08
0.0012974
0.0269247
0.147371
-9.38569e-09
0.00184976
0.0279314
0.166689
0.00170128
0.0286919
0.181974
0.00100131
0.0291879
0.192565
-6.95137e-08
0.0294344
0.19798
-0.00100144
0.0294344
0.19798
-0.0017014
0.0291879
0.192565
-0.00184987
0.0286919
0.181974
-0.00129749
0.0279314
0.166689
0.0269247
0.147371
-7.3519e-08
0.00152354
0.127751
-1.1836e-08
0.0206984
0.00215461
0.14673
0.0212592
0.00196896
0.16157
0.0216999
0.00115343
0.171776
0.0219955
-7.25944e-08
0.176972
0.0221426
-0.00115357
0.176972
0.0221426
-0.00196909
0.171776
0.0219955
-0.00215471
0.16157
0.0216999
-0.00152362
0.14673
0.0212592
0.127751
-7.03521e-08
0.0206984
2.38613e-06
0.00117535
0.0302379
-3.37416e-10
4.81101e-08
0.00130623
0.0333746
1.32173e-07
0.00142081
0.0360156
6.04462e-08
0.00150837
0.0379255
-3.24512e-09
0.00155513
0.038928
-6.69603e-08
0.00155513
0.038928
-1.38725e-07
0.00150837
0.0379255
-5.48407e-08
0.00142081
0.0360156
-2.39282e-06
0.00130623
0.0333746
0.00117535
0.0302379
-6.79091e-09
2.79045e-05
0.00422513
0.0811675
-8.97444e-10
3.5162e-05
0.00466323
0.0895949
3.18248e-05
0.00504107
0.0966637
1.86948e-05
0.0053218
0.101762
-9.86656e-09
0.00547061
0.104433
-1.87146e-05
0.00547061
0.104433
-3.18445e-05
0.0053218
0.101762
-3.51816e-05
0.00504107
0.0966637
-2.79237e-05
0.00466323
0.0895949
0.00422514
0.0811675
-1.90247e-08
7.59817e-05
0.00813157
0.120071
-1.55754e-09
0.000106382
0.00891911
0.132659
9.74231e-05
0.00959127
0.143161
5.75691e-05
0.0100813
0.15071
-1.64497e-08
0.0103395
0.154657
-5.7602e-05
0.0103395
0.154657
-9.74557e-05
0.0100813
0.15071
-0.000106414
0.00959128
0.143161
-7.60124e-05
0.00891912
0.132659
0.00813157
0.120071
-2.99314e-08
0.000146313
0.0118942
0.147581
-2.27807e-09
0.000210884
0.012961
0.163265
0.000194924
0.0138617
0.176266
0.000115439
0.0145079
0.185571
-2.30432e-08
0.014846
0.190425
-0.000115485
0.014846
0.190425
-0.000194969
0.0145079
0.185571
-0.000210927
0.0138617
0.176266
-0.000146353
0.012961
0.163265
0.0118942
0.14758
-3.92262e-08
0.000236002
0.0147792
0.16455
-3.13567e-09
0.000342143
0.0159926
0.182381
0.000317309
0.0170039
0.197051
0.000188005
0.0177183
0.207499
-2.96894e-08
0.0180892
0.212933
-0.000188064
0.0180892
0.212933
-0.000317366
0.0177183
0.207499
-0.000342196
0.0170039
0.197051
-0.000236051
0.0159926
0.182381
0.0147792
0.16455
-4.69014e-08
0.000340066
0.0163679
0.172011
-4.17199e-09
0.000491894
0.0175818
0.191183
0.000456321
0.018577
0.206827
0.000270256
0.0192688
0.217908
-3.63503e-08
0.0196248
0.223652
-0.000270328
0.0196248
0.223652
-0.00045639
0.0192688
0.217908
-0.000491957
0.018577
0.206827
-0.000340122
0.0175818
0.191183
0.0163679
0.172011
-5.28533e-08
0.000451824
0.0165371
0.171101
-5.40547e-09
0.000651106
0.0176257
0.190967
0.000603583
0.0185002
0.207037
0.000357216
0.0190981
0.218355
-4.27885e-08
0.019403
0.224201
-0.0003573
0.019403
0.224201
-0.000603662
0.0190981
0.218355
-0.000651177
0.0185003
0.207037
-0.000451886
0.0176257
0.190967
0.0165371
0.171101
-5.70149e-08
0.000565403
0.0154007
0.162997
-6.7268e-09
0.000812991
0.016277
0.18307
0.000752743
0.0169657
0.199168
0.000444997
0.0174291
0.210436
-4.86791e-08
0.0176633
0.216234
-0.000445092
0.0176633
0.216234
-0.000752832
0.0174291
0.210436
-0.000813068
0.0169657
0.199168
-0.000565469
0.016277
0.18307
0.0154008
0.162997
-5.93149e-08
0.000681106
0.0132356
0.148855
-8.22943e-09
0.000975985
0.0138603
0.168811
0.000900597
0.0143423
0.184673
0.000531133
0.0146627
0.195701
-5.30224e-08
0.0148235
0.201351
-0.000531236
0.0148235
0.201351
-0.000900691
0.0146627
0.1957
-0.000976066
0.0143423
0.184673
-0.000681172
0.0138603
0.16881
0.0132356
0.148855
-5.90118e-08
0.000798882
0.129775
-1.0109e-08
0.0104122
0.00113708
0.149464
0.0107881
0.00104462
0.164923
0.0110825
0.000614014
0.175588
0.0112818
-5.48241e-08
0.181028
0.0113819
-0.00061412
0.181028
0.0113819
-0.00104471
0.175588
0.0112818
-0.00113716
0.164923
0.0110825
-0.000798946
0.149464
0.0107881
0.129775
-5.62338e-08
0.0104122
-5.21084e-06
0.000491634
0.0297515
-2.66706e-10
-7.85778e-06
0.000540679
0.0328366
-6.3928e-06
0.000582289
0.0354319
-3.56457e-06
0.00061384
0.0373088
-2.52089e-09
0.000630448
0.038294
3.55952e-06
0.000630448
0.038294
6.3877e-06
0.00061384
0.0373088
7.85261e-06
0.000582289
0.0354319
5.20574e-06
0.00054068
0.0328366
0.000491634
0.0297515
-5.21483e-09
-2.36855e-06
0.00170145
0.0799601
-7.45762e-10
-4.15995e-06
0.00187327
0.0882641
-2.96188e-06
0.0020202
0.0952246
-1.35884e-06
0.00212942
0.100245
-7.61532e-09
0.00218724
0.102875
1.34357e-06
0.00218724
0.102875
2.94665e-06
0.00212942
0.100245
4.14454e-06
0.0020202
0.0952246
2.35302e-06
0.00187328
0.0882641
0.00170146
0.0799601
-1.46845e-08
1.23783e-05
0.00329339
0.118467
-1.27962e-09
1.79137e-05
0.0036187
0.130908
1.75377e-05
0.00389659
0.141285
1.0873e-05
0.00410032
0.148746
-1.26421e-08
0.00420793
0.152648
-1.08983e-05
0.00420793
0.152648
-1.75627e-05
0.00410032
0.148746
-1.79381e-05
0.0038966
0.141285
-1.24015e-05
0.00361871
0.130908
0.0032934
0.118467
-2.29093e-08
3.88933e-05
0.00491116
0.145924
-1.85603e-09
5.7448e-05
0.00537472
0.16149
5.45103e-05
0.00576818
0.174398
3.28711e-05
0.00605291
0.18364
-1.76003e-08
0.00620257
0.188463
-3.29061e-05
0.00620257
0.188463
-5.45447e-05
0.00605292
0.18364
-5.74811e-05
0.00576818
0.174398
-3.89244e-05
0.00537473
0.16149
0.00491116
0.145924
-3.0063e-08
7.61939e-05
0.00624418
0.163141
-2.52553e-09
0.000112289
0.00679744
0.180923
0.00010576
0.00726207
0.195564
6.3319e-05
0.00759383
0.206001
-2.25038e-08
0.00776707
0.211431
-6.33637e-05
0.00776707
0.211431
-0.000105804
0.00759383
0.206001
-0.00011233
0.00726207
0.195564
-7.62316e-05
0.00679745
0.180923
0.00624419
0.163141
-3.60322e-08
0.000122341
0.00707781
0.171055
-3.31513e-09
0.000179224
0.00765703
0.190267
0.000168123
0.00813637
0.205963
0.000100306
0.00847373
0.217096
-2.73124e-08
0.00864856
0.222871
-0.00010036
0.00864857
0.222871
-0.000168175
0.00847374
0.217096
-0.000179272
0.00813638
0.205963
-0.000122384
0.00765704
0.190267
0.00707782
0.171055
-4.06982e-08
0.00017457
0.00731
0.170694
-4.23452e-09
0.000254375
0.0078527
0.190691
0.00023795
0.00829354
0.206896
0.000141643
0.00859912
0.218326
-3.18636e-08
0.00875616
0.224235
-0.000141705
0.00875616
0.224235
-0.000238009
0.00859913
0.218326
-0.000254428
0.00829355
0.206896
-0.000174618
0.0078527
0.190691
0.00731
0.170694
-4.40159e-08
0.000230375
0.00694528
0.163131
-5.22321e-09
0.000334603
0.00740188
0.183416
0.000312164
0.00776536
0.199719
0.000185409
0.0080135
0.211149
-3.59389e-08
0.00813992
0.217036
-0.00018548
0.00813992
0.217036
-0.00031223
0.00801351
0.211149
-0.000334661
0.00776537
0.199719
-0.000230424
0.00740189
0.183416
0.00694529
0.163131
-4.59505e-08
0.000290111
0.00607369
0.149437
-6.29916e-09
0.000419048
0.00641594
0.169668
0.000388973
0.00668311
0.185785
0.00023024
0.00686302
0.19701
-3.89258e-08
0.00695397
0.202767
-0.000230316
0.00695397
0.202767
-0.000389043
0.00686302
0.19701
-0.000419109
0.00668311
0.185785
-0.000290162
0.00641595
0.169667
0.0060737
0.149437
-4.60711e-08
0.000352311
0.13065
-7.53956e-09
0.00484719
0.000505194
0.150662
0.00506554
0.000466697
0.166407
0.00523754
0.000275244
0.177287
0.00535473
-4.02252e-08
0.182843
0.00541389
-0.000275322
0.182843
0.00541389
-0.000466768
0.177287
0.00535474
-0.000505255
0.166407
0.00523755
-0.000352361
0.150662
0.00506555
0.13065
-4.44638e-08
0.00484719
-5.54249e-07
0.000145206
0.0296069
-1.90361e-10
-1.25497e-06
0.000161089
0.0326762
-9.64551e-07
0.000175048
0.0352565
-5.35856e-07
0.000186046
0.0371223
-1.91103e-09
0.000191928
0.0381015
5.32028e-07
0.000191928
0.0381015
9.60735e-07
0.000186046
0.0371223
1.25109e-06
0.000175049
0.0352565
5.5041e-07
0.000161089
0.0326762
0.000145206
0.0296069
-3.69493e-09
1.47543e-06
0.000575269
0.0795286
-5.5475e-10
1.33345e-06
0.000637315
0.087788
1.3391e-06
0.000691392
0.0947083
8.51677e-07
0.000732362
0.0996987
-5.73553e-09
0.000754252
0.102314
-8.63112e-07
0.000754252
0.102314
-1.35045e-06
0.000732363
0.0996987
-1.34442e-06
0.000691393
0.0947083
-1.48592e-06
0.000637316
0.087788
0.00057527
0.0795285
-1.04196e-08
7.63454e-06
0.00118712
0.117847
-9.60332e-10
1.03724e-05
0.00131172
0.130231
9.6737e-06
0.00141955
0.140558
5.8049e-06
0.00149973
0.147982
-9.47333e-09
0.0015424
0.151865
-5.82378e-06
0.0015424
0.151865
-9.69232e-06
0.00149973
0.147982
-1.03905e-05
0.00141956
0.140558
-7.65167e-06
0.00131172
0.130231
0.00118712
0.117847
-1.65937e-08
1.8451e-05
0.00184501
0.145248
-1.38486e-09
2.64967e-05
0.00203074
0.160763
2.47504e-05
0.00219017
0.173629
1.47788e-05
0.00230701
0.182843
-1.31089e-08
0.00236885
0.187651
-1.48049e-05
0.00236886
0.187651
-2.47759e-05
0.00230701
0.182843
-2.65212e-05
0.00219017
0.173629
-1.84739e-05
0.00203074
0.160763
0.00184502
0.145247
-2.19561e-08
3.39709e-05
0.00242097
0.162531
-1.85848e-09
4.94767e-05
0.00265131
0.180286
4.63e-05
0.00284693
0.19491
2.76107e-05
0.00298837
0.205338
-1.66377e-08
0.00306274
0.210765
-2.76437e-05
0.00306274
0.210765
-4.6332e-05
0.00298837
0.205338
-4.9507e-05
0.00284694
0.19491
-3.39987e-05
0.00265131
0.180286
0.00242097
0.162531
-2.64775e-08
5.37231e-05
0.00281627
0.170606
-2.39834e-09
7.84197e-05
0.0030658
0.189828
7.34054e-05
0.00327478
0.205541
4.37364e-05
0.00342376
0.21669
-2.00313e-08
0.00350152
0.222476
-4.3776e-05
0.00350152
0.222476
-7.34434e-05
0.00342377
0.21669
-7.84552e-05
0.00327479
0.205541
-5.3755e-05
0.0030658
0.189828
0.00281628
0.170606
-3.00928e-08
7.67503e-05
0.00297356
0.17046
-3.00859e-09
0.000111904
0.00321475
0.190507
0.000104686
0.0034133
0.206765
6.23125e-05
0.00355274
0.21824
-2.31946e-08
0.00362492
0.224174
-6.23581e-05
0.00362492
0.224174
-0.000104729
0.00355275
0.21824
-0.000111944
0.0034133
0.206765
-7.67854e-05
0.00321476
0.190507
0.00297356
0.17046
-3.2784e-08
0.000102035
0.0028797
0.163123
-3.66229e-09
0.000148526
0.00308886
0.183496
0.000138705
0.00325769
0.199884
8.2428e-05
0.00337442
0.211383
-2.59997e-08
0.00343429
0.217309
-8.2479e-05
0.00343429
0.217309
-0.000138753
0.00337443
0.211383
-0.000148569
0.0032577
0.199884
-0.000102072
0.00308887
0.183496
0.00287971
0.163123
-3.45364e-08
0.000129423
0.00256121
0.149626
-4.35369e-09
0.00018734
0.00272316
0.169975
0.000174143
0.00285089
0.186205
0.000103176
0.00293776
0.197517
-2.81183e-08
0.00298191
0.203323
-0.000103231
0.00298191
0.203323
-0.000174194
0.00293777
0.197517
-0.000187385
0.00285089
0.186205
-0.000129461
0.00272316
0.169975
0.00256122
0.149626
-3.51298e-08
0.000156345
0.130977
-5.08922e-09
0.00207758
0.000225278
0.151132
0.00218397
0.000208853
0.167006
0.00226797
0.000123452
0.177985
0.00232549
-2.92404e-08
0.183594
0.00235465
-0.000123509
0.183594
0.00235465
-0.000208905
0.177985
0.00232549
-0.000225324
0.167006
0.00226797
-0.000156384
0.151132
0.00218397
0.130977
-3.46199e-08
0.00207758
-1.17387e-06
5.90421e-05
0.029549
-1.2491e-10
-1.71036e-06
6.47635e-05
0.032612
-1.40548e-06
6.96574e-05
0.0351866
-7.86348e-07
7.34583e-05
0.0370482
-1.41714e-09
7.54614e-05
0.0380253
7.83521e-07
7.54615e-05
0.0380253
1.40271e-06
7.34584e-05
0.0370482
1.70763e-06
6.96577e-05
0.0351866
1.17125e-06
6.47638e-05
0.032612
5.90424e-05
0.029549
-2.52992e-09
-1.57544e-06
0.000220138
0.079369
-3.72633e-10
-2.40415e-06
0.000242983
0.0876106
-2.02087e-06
0.000262756
0.0945148
-1.1172e-06
0.000277743
0.0994935
-4.23379e-09
0.000285722
0.102102
1.10876e-06
0.000285722
0.102102
2.01265e-06
0.000277743
0.0994935
2.39612e-06
0.000262757
0.0945148
1.56783e-06
0.000242984
0.0876106
0.000220138
0.079369
-7.24296e-09
1.22002e-07
0.000451335
0.117616
-6.51396e-10
-1.50216e-08
0.00049891
0.129975
1.24975e-07
0.000539996
0.140281
1.66084e-07
0.000570622
0.147689
-6.95236e-09
0.000586949
0.151564
-1.79863e-07
0.00058695
0.151564
-1.38783e-07
0.000570623
0.147689
1.98465e-09
0.000539997
0.140281
-1.34139e-07
0.000498911
0.129975
0.000451337
0.117616
-1.15887e-08
3.74265e-06
0.000708185
0.144987
-9.41435e-10
5.4416e-06
0.000781446
0.160479
5.26575e-06
0.000844418
0.173324
3.22609e-06
0.000890802
0.182525
-9.57645e-09
0.000915422
0.187326
-3.24511e-06
0.000915422
0.187326
-5.2842e-06
0.000890803
0.182525
-5.45922e-06
0.00084442
0.173324
-3.75887e-06
0.000781449
0.160479
0.000708187
0.144987
-1.5425e-08
9.56616e-06
0.000942558
0.162287
-1.25659e-09
1.40821e-05
0.00103628
0.180027
1.33688e-05
0.00111612
0.194639
8.05418e-06
0.00117421
0.20506
-1.20758e-08
0.00120486
0.210484
-8.07809e-06
0.00120486
0.210484
-1.33919e-05
0.00117421
0.20506
-1.4104e-05
0.00111612
0.194639
-9.58606e-06
0.00103628
0.180027
0.000942561
0.162287
-1.87465e-08
1.73624e-05
0.00111338
0.170418
-1.60215e-09
2.55641e-05
0.00121792
0.189638
2.41437e-05
0.00130585
0.205352
1.44724e-05
0.00136898
0.216505
-1.4441e-08
0.00140205
0.222293
-1.45009e-05
0.00140205
0.222293
-2.41711e-05
0.00136898
0.216505
-2.55896e-05
0.00130585
0.205352
-1.73854e-05
0.00121792
0.189638
0.00111338
0.170418
-2.1478e-08
2.67913e-05
0.00119329
0.170354
-1.97843e-09
3.93704e-05
0.0012972
0.190415
3.70831e-05
0.00138318
0.20669
2.21696e-05
0.00144403
0.218179
-1.66265e-08
0.00147566
0.224123
-2.22024e-05
0.00147566
0.224123
-3.71143e-05
0.00144403
0.218179
-3.93991e-05
0.00138319
0.20669
-2.68167e-05
0.0012972
0.190415
0.00119329
0.170354
-2.36162e-08
3.7494e-05
0.00117176
0.163107
-2.37332e-09
5.49747e-05
0.00126436
0.183511
5.1626e-05
0.00133958
0.199931
3.07835e-05
0.00139197
0.211456
-1.85662e-08
0.00141895
0.217397
-3.08199e-05
0.00141896
0.217397
-5.16605e-05
0.00139197
0.211456
-5.50059e-05
0.00133958
0.199931
-3.75212e-05
0.00126436
0.183511
0.00117176
0.163107
-2.516e-08
4.94934e-05
0.00105486
0.149693
-2.77431e-09
7.2042e-05
0.00112865
0.170088
6.72481e-05
0.00118722
0.186362
3.99443e-05
0.00122732
0.197709
-2.0102e-08
0.00124777
0.203534
-3.99836e-05
0.00124777
0.203534
-6.7285e-05
0.00122732
0.197709
-7.20751e-05
0.00118722
0.186362
-4.95218e-05
0.00112865
0.170088
0.00105487
0.149693
-2.60064e-08
6.16429e-05
0.131106
-3.17469e-09
0.00086398
8.92751e-05
0.151319
0.000914002
8.30914e-05
0.167246
0.00095368
4.92295e-05
0.178265
0.000980964
-2.10848e-08
0.183896
0.000994838
-4.92707e-05
0.183896
0.000994838
-8.31297e-05
0.178265
0.000980964
-8.93092e-05
0.167246
0.00095368
-6.16718e-05
0.151319
0.000914002
0.131106
-2.61852e-08
0.000863979
-2.69037e-07
1.43053e-05
0.029535
-8.19595e-11
-4.38203e-07
1.58927e-05
0.0325962
-3.61626e-07
1.73528e-05
0.0351691
-2.0476e-07
1.85557e-05
0.0370295
-1.01751e-09
1.92054e-05
0.0380059
2.02736e-07
1.92054e-05
0.0380059
3.5966e-07
1.85558e-05
0.0370295
4.36307e-07
1.7353e-05
0.0351691
2.67246e-07
1.58929e-05
0.0325962
1.43054e-05
0.0295349
-1.6621e-09
-3.49348e-07
6.5583e-05
0.0793181
-2.48688e-10
-6.4297e-07
7.30776e-05
0.0875537
-5.62466e-07
7.97682e-05
0.0944523
-3.18812e-07
8.49698e-05
0.0994269
-3.02952e-09
8.77761e-05
0.102033
3.12803e-07
8.77762e-05
0.102033
5.56639e-07
8.49701e-05
0.0994269
6.37385e-07
7.97687e-05
0.0944523
3.44054e-07
7.30783e-05
0.0875537
6.55834e-05
0.0793181
-4.81078e-09
2.4977e-07
0.000146325
0.117535
-4.26355e-10
1.80708e-07
0.000163001
0.129885
1.74805e-07
0.000177678
0.140183
1.17165e-07
0.00018882
0.147586
-4.97166e-09
0.00019481
0.151457
-1.2702e-07
0.00019481
0.151457
-1.84364e-07
0.00018882
0.147586
-1.89624e-07
0.000177679
0.140183
-2.57656e-07
0.000163002
0.129885
0.000146327
0.117535
-7.70664e-09
1.61225e-06
0.000241042
0.144891
-6.13608e-10
2.20999e-06
0.00026785
0.160374
2.06582e-06
0.000291221
0.173211
1.24073e-06
0.000308684
0.182406
-6.81892e-09
0.000318021
0.187204
-1.25424e-06
0.000318021
0.187204
-2.07887e-06
0.000308685
0.182406
-2.22231e-06
0.000291223
0.173211
-1.6235e-06
0.000267851
0.160374
0.000241044
0.144891
-1.04388e-08
3.83979e-06
0.000331787
0.162192
-8.09655e-10
5.52489e-06
0.000367219
0.179926
5.17825e-06
0.000397772
0.194533
3.09629e-06
0.000420281
0.20495
-8.56825e-09
0.000432238
0.210373
-3.11323e-06
0.000432239
0.210373
-5.19457e-06
0.000420282
0.20495
-5.54018e-06
0.000397773
0.194533
-3.85364e-06
0.000367221
0.179926
0.00033179
0.162192
-1.28186e-08
6.90015e-06
0.000402084
0.170341
-1.01674e-09
1.00641e-05
0.000442681
0.189559
9.45124e-06
0.000477216
0.205273
5.64592e-06
0.0005023
0.216427
-1.02032e-08
0.000515527
0.222216
-5.66605e-06
0.000515528
0.222216
-9.47055e-06
0.000502301
0.216427
-1.0082e-05
0.000477218
0.205273
-6.91622e-06
0.000442683
0.189559
0.000402087
0.170341
-1.48191e-08
1.06868e-05
0.000439903
0.170305
-1.23431e-09
1.56531e-05
0.000481203
0.190372
1.4708e-05
0.000515759
0.206652
8.77919e-06
0.00054048
0.218147
-1.17049e-08
0.000553405
0.224094
-8.80224e-06
0.000553406
0.224094
-1.473e-05
0.000540481
0.218147
-1.56733e-05
0.00051576
0.206652
-1.07047e-05
0.000481205
0.190372
0.000439906
0.170305
-1.64541e-08
1.50637e-05
0.000439427
0.163093
-1.45654e-09
2.20709e-05
0.000477036
0.183508
2.07073e-05
0.000507895
0.19994
1.23393e-05
0.000529598
0.211476
-1.3044e-08
0.00054083
0.217422
-1.23649e-05
0.000540831
0.217422
-2.07316e-05
0.000529599
0.211475
-2.20931e-05
0.000507897
0.19994
-1.50832e-05
0.000477037
0.183508
0.000439429
0.163093
-1.77237e-08
1.99801e-05
0.000401492
0.149711
-1.67179e-09