/*--------------------------------*- C++ -*----------------------------------*\
| =========                 |                                                 |
| \\      /  F ield         | OpenFOAM: The Open Source CFD Toolbox           |
|  \\    /   O peration     | Version:  2106                                  |
|   \\  /    A nd           | Website:  www.openfoam.com                      |
|    \\/     M anipulation  |                                                 |
\*---------------------------------------------------------------------------*/
FoamFile
{
    version     2.0;
    format      ascii;
    arch        "LSB;label=32;scalar=64";
    class       volVectorField;
    location    "0.25";
    object      U;
}
// * * * * * * * * * * * * * * * * * * * * * * * * * * * * * * * * * * * * * //

dimensions      [0 1 -1 0 0 0 0];

internalField   nonuniform List<vector> 
10000
(
(0.0601386 0.0708524 0.333153)
(0.0512919 0.0805577 0.347111)
(0.0383111 0.0893377 0.358071)
(0.0237666 0.0954639 0.365638)
(0.00805454 0.0986316 0.369483)
(-0.00805455 0.0986316 0.369483)
(-0.0237666 0.0954639 0.365638)
(-0.0383111 0.0893377 0.358071)
(-0.0512919 0.0805577 0.347111)
(-0.0601386 0.0708524 0.333153)
(0.164372 0.195015 0.701698)
(0.138705 0.220883 0.720547)
(0.103523 0.243638 0.734596)
(0.0640334 0.259383 0.744089)
(0.0216724 0.2675 0.748834)
(-0.0216725 0.2675 0.748834)
(-0.0640335 0.259383 0.744089)
(-0.103523 0.243638 0.734597)
(-0.138705 0.220883 0.720547)
(-0.164372 0.195015 0.701698)
(0.211188 0.250822 0.889791)
(0.176147 0.280542 0.904884)
(0.130573 0.306497 0.915434)
(0.0803417 0.324227 0.922388)
(0.027121 0.333302 0.925796)
(-0.027121 0.333302 0.925796)
(-0.0803418 0.324227 0.922388)
(-0.130573 0.306497 0.915434)
(-0.176147 0.280542 0.904884)
(-0.211188 0.250822 0.889791)
(0.223454 0.265017 0.984491)
(0.184456 0.292518 0.994403)
(0.135814 0.31659 1.00068)
(0.0831468 0.332821 1.00467)
(0.0279986 0.341067 1.00657)
(-0.0279987 0.341067 1.00657)
(-0.0831469 0.332821 1.00467)
(-0.135814 0.31659 1.00068)
(-0.184456 0.292517 0.994403)
(-0.223455 0.265017 0.984491)
(0.219399 0.259805 1.03026)
(0.179508 0.283183 1.03575)
(0.131393 0.303789 1.03857)
(0.0800803 0.317533 1.04025)
(0.0269076 0.324463 1.04099)
(-0.0269077 0.324463 1.04099)
(-0.0800804 0.317533 1.04025)
(-0.131393 0.303789 1.03857)
(-0.179508 0.283183 1.03575)
(-0.219399 0.259805 1.03026)
(0.206823 0.244531 1.04976)
(0.167823 0.263228 1.05196)
(0.122176 0.279873 1.05237)
(0.0741513 0.290881 1.05246)
(0.0248653 0.296391 1.05242)
(-0.0248654 0.296391 1.05242)
(-0.0741514 0.290881 1.05246)
(-0.122176 0.279873 1.05237)
(-0.167823 0.263228 1.05196)
(-0.206823 0.244531 1.04976)
(0.189493 0.223535 1.05535)
(0.152488 0.237479 1.05531)
(0.110441 0.250064 1.05418)
(0.0667609 0.258349 1.05327)
(0.0223439 0.26247 1.05277)
(-0.022344 0.26247 1.05277)
(-0.066761 0.258349 1.05327)
(-0.110441 0.250064 1.05418)
(-0.152488 0.237479 1.05531)
(-0.189493 0.223535 1.05535)
(0.169767 0.199573 1.05393)
(0.135465 0.208981 1.05248)
(0.0976413 0.217645 1.05048)
(0.0588051 0.223368 1.04903)
(0.0196458 0.226209 1.04827)
(-0.019646 0.226209 1.04827)
(-0.0588053 0.223368 1.04903)
(-0.0976414 0.217645 1.05048)
(-0.135465 0.208981 1.05248)
(-0.169767 0.199573 1.05393)
(0.149176 0.174449 1.0494)
(0.118118 0.17966 1.04708)
(0.0847576 0.184679 1.04468)
(0.050873 0.188106 1.04299)
(0.0169678 0.189824 1.04213)
(-0.016968 0.189824 1.04213)
(-0.0508732 0.188106 1.04299)
(-0.0847578 0.184679 1.04468)
(-0.118118 0.17966 1.04708)
(-0.149176 0.174449 1.0494)
(0.128861 0.149616 1.04391)
(0.101609 0.149542 1.04112)
(0.0724016 0.151676 1.03858)
(0.0432948 0.153263 1.03686)
(0.0144148 0.154079 1.03599)
(-0.014415 0.154079 1.03599)
(-0.0432951 0.153263 1.03686)
(-0.0724018 0.151676 1.03858)
(-0.10161 0.149542 1.04112)
(-0.128861 0.149616 1.04391)
(0.0106993 0.0136838 0.263202)
(0.00897744 0.0168294 0.275314)
(0.00677888 0.019349 0.285233)
(0.00428858 0.0210755 0.292139)
(0.0014672 0.0219743 0.295673)
(-0.00146721 0.0219743 0.295673)
(-0.0042886 0.0210755 0.292139)
(-0.00677889 0.019349 0.285233)
(-0.00897746 0.0168294 0.275314)
(-0.0106993 0.0136838 0.263202)
(0.0506227 0.0613608 0.620635)
(0.0433896 0.0737603 0.642174)
(0.0331725 0.0843531 0.659447)
(0.0209545 0.0918421 0.671324)
(0.0071683 0.095768 0.677351)
(-0.00716834 0.095768 0.677351)
(-0.0209546 0.0918421 0.671324)
(-0.0331725 0.0843531 0.659447)
(-0.0433897 0.0737603 0.642174)
(-0.0506227 0.0613607 0.620636)
(0.0895628 0.107176 0.862017)
(0.0762274 0.12654 0.885115)
(0.0579309 0.143102 0.903221)
(0.0363591 0.15475 0.915508)
(0.0123981 0.16082 0.92169)
(-0.0123982 0.16082 0.921691)
(-0.0363592 0.15475 0.915508)
(-0.0579309 0.143102 0.903221)
(-0.0762275 0.12654 0.885115)
(-0.0895629 0.107176 0.862017)
(0.120726 0.143422 1.02369)
(0.101798 0.166595 1.04455)
(0.0768074 0.186306 1.06047)
(0.0479075 0.200047 1.07111)
(0.016285 0.207162 1.07642)
(-0.0162851 0.207162 1.07642)
(-0.0479076 0.200047 1.07111)
(-0.0768075 0.186306 1.06047)
(-0.101798 0.166595 1.04455)
(-0.120726 0.143422 1.02369)
(0.141786 0.167509 1.12997)
(0.118434 0.191616 1.14694)
(0.0887294 0.211965 1.15949)
(0.0550272 0.226025 1.16773)
(0.0186515 0.233256 1.17178)
(-0.0186516 0.233256 1.17178)
(-0.0550273 0.226025 1.16773)
(-0.0887296 0.211965 1.15949)
(-0.118434 0.191616 1.14695)
(-0.141786 0.167509 1.12997)
(0.15323 0.180128 1.1976)
(0.126804 0.202969 1.21025)
(0.0943567 0.222062 1.2192)
(0.0582045 0.235141 1.22493)
(0.0196757 0.241824 1.22771)
(-0.0196759 0.241824 1.22771)
(-0.0582047 0.235141 1.22493)
(-0.0943568 0.222062 1.2192)
(-0.126805 0.202969 1.21025)
(-0.15323 0.180127 1.1976)
(0.15642 0.18297 1.23857)
(0.128238 0.202995 1.2471)
(0.0948006 0.219513 1.25277)
(0.058185 0.23074 1.25626)
(0.0196199 0.236444 1.2579)
(-0.0196201 0.236444 1.2579)
(-0.0581853 0.23074 1.25626)
(-0.0948008 0.219513 1.25277)
(-0.128239 0.202994 1.2471)
(-0.156421 0.18297 1.23857)
(0.152907 0.177908 1.26148)
(0.124187 0.194102 1.26646)
(0.091238 0.207219 1.2694)
(0.0557393 0.216081 1.27105)
(0.0187518 0.220565 1.27178)
(-0.0187521 0.220565 1.27178)
(-0.0557396 0.216081 1.27105)
(-0.0912383 0.207219 1.2694)
(-0.124188 0.194102 1.26646)
(-0.152907 0.177908 1.26148)
(0.144234 0.166722 1.27246)
(0.116128 0.178494 1.27459)
(0.0848163 0.187746 1.27545)
(0.0515895 0.194017 1.27573)
(0.0173181 0.197189 1.27577)
(-0.0173184 0.197189 1.27577)
(-0.0515898 0.194017 1.27573)
(-0.0848165 0.187746 1.27545)
(-0.116128 0.178494 1.27459)
(-0.144234 0.166722 1.27246)
(0.131975 0.151878 1.27597)
(0.105602 0.157341 1.27595)
(0.0765171 0.162711 1.27534)
(0.0463167 0.1664 1.27467)
(0.015512 0.168269 1.27426)
(-0.0155123 0.168269 1.27426)
(-0.0463171 0.1664 1.27467)
(-0.0765174 0.16271 1.27534)
(-0.105602 0.157341 1.27595)
(-0.131975 0.151878 1.27597)
(0.000964493 0.0010617 0.162136)
(0.000994556 0.0013599 0.170636)
(0.000780715 0.00172476 0.177724)
(0.000523821 0.00199763 0.182742)
(0.000182887 0.00214919 0.185338)
(-0.000182901 0.00214919 0.185338)
(-0.000523835 0.00199763 0.182742)
(-0.00078073 0.00172475 0.177724)
(-0.000994574 0.00135989 0.170636)
(-0.000964511 0.00106168 0.162136)
(0.0157802 0.0182934 0.449547)
(0.0142137 0.0222934 0.469806)
(0.0111282 0.0260829 0.486423)
(0.00714585 0.0288828 0.498078)
(0.00246228 0.0303866 0.504075)
(-0.00246232 0.0303866 0.504075)
(-0.00714589 0.0288828 0.498078)
(-0.0111282 0.0260829 0.486423)
(-0.0142137 0.0222934 0.469806)
(-0.0157802 0.0182934 0.449547)
(0.0354662 0.0412853 0.691218)
(0.0313133 0.0494895 0.718216)
(0.0243049 0.0569992 0.739985)
(0.0154688 0.0624816 0.755113)
(0.00530888 0.065398 0.762851)
(-0.00530895 0.065398 0.762851)
(-0.0154688 0.0624816 0.755113)
(-0.024305 0.0569992 0.739985)
(-0.0313133 0.0494894 0.718216)
(-0.0354662 0.0412852 0.691218)
(0.0561293 0.0654309 0.88726)
(0.0488416 0.0772481 0.916832)
(0.0375924 0.087838 0.940232)
(0.0237567 0.0954746 0.956327)
(0.00812574 0.0995039 0.964508)
(-0.00812584 0.0995039 0.964508)
(-0.0237568 0.0954746 0.956327)
(-0.0375926 0.087838 0.940232)
(-0.0488418 0.077248 0.916832)
(-0.0561294 0.0654308 0.88726)
(0.0739044 0.0860915 1.04181)
(0.0635089 0.100135 1.07091)
(0.0484925 0.112519 1.09346)
(0.0304542 0.121348 1.1088)
(0.0103849 0.125972 1.11654)
(-0.0103851 0.125972 1.11654)
(-0.0304543 0.121348 1.1088)
(-0.0484926 0.112519 1.09346)
(-0.063509 0.100135 1.07091)
(-0.0739045 0.0860914 1.04181)
(0.0870433 0.10117 1.16056)
(0.0739453 0.115911 1.1872)
(0.0560328 0.128717 1.20738)
(0.0349874 0.137754 1.22092)
(0.0118972 0.142454 1.2277)
(-0.0118973 0.142454 1.2277)
(-0.0349876 0.137754 1.22092)
(-0.056033 0.128717 1.20738)
(-0.0739454 0.11591 1.1872)
(-0.0870435 0.10117 1.16056)
(0.0950802 0.110145 1.24955)
(0.0798901 0.124209 1.2726)
(0.0600955 0.136236 1.28963)
(0.0373211 0.144646 1.3009)
(0.0126569 0.148992 1.3065)
(-0.0126571 0.148992 1.3065)
(-0.0373213 0.144646 1.3009)
(-0.0600957 0.136236 1.28963)
(-0.0798903 0.124209 1.2726)
(-0.0950804 0.110145 1.24955)
(0.0981841 0.113244 1.31447)
(0.0816198 0.12552 1.3335)
(0.0609655 0.135823 1.34721)
(0.0376673 0.14297 1.35613)
(0.0127419 0.146646 1.36052)
(-0.0127422 0.146646 1.36052)
(-0.0376676 0.14297 1.35613)
(-0.0609657 0.135823 1.3472)
(-0.0816201 0.12552 1.3335)
(-0.0981843 0.113244 1.31447)
(0.096923 0.111115 1.36039)
(0.0797578 0.120782 1.37551)
(0.0591565 0.128662 1.38612)
(0.0363615 0.134112 1.39289)
(0.0122688 0.136905 1.39618)
(-0.0122691 0.136905 1.39618)
(-0.0363618 0.134112 1.39289)
(-0.0591567 0.128662 1.38612)
(-0.0797581 0.120782 1.37551)
(-0.0969232 0.111115 1.36039)
(0.0921807 0.105315 1.39157)
(0.0751542 0.110752 1.40347)
(0.0552092 0.115784 1.41142)
(0.0337329 0.119261 1.41638)
(0.0113488 0.121036 1.41874)
(-0.0113491 0.121036 1.41874)
(-0.0337332 0.119261 1.41638)
(-0.0552095 0.115784 1.41142)
(-0.0751544 0.110752 1.40347)
(-0.092181 0.105315 1.39157)
(0.000637201 0.000845592 0.146238)
(0.00049239 0.00106042 0.153455)
(0.000334045 0.00120992 0.159329)
(0.000204881 0.00129682 0.163455)
(6.8272e-05 0.00133961 0.165583)
(-6.8283e-05 0.00133961 0.165583)
(-0.000204893 0.00129681 0.163455)
(-0.000334059 0.00120991 0.159329)
(-0.000492405 0.00106041 0.153455)
(-0.000637216 0.00084558 0.146238)
(0.00583543 0.00701668 0.413263)
(0.00504128 0.00864441 0.431794)
(0.0038613 0.0100432 0.446772)
(0.00245663 0.0110392 0.457246)
(0.000842551 0.011567 0.462633)
(-0.000842585 0.011567 0.462633)
(-0.00245666 0.0110392 0.457246)
(-0.00386133 0.0100432 0.446772)
(-0.00504133 0.00864439 0.431794)
(-0.00583548 0.00701665 0.413263)
(0.0140252 0.0166299 0.648326)
(0.0121814 0.0202128 0.674751)
(0.0093943 0.0233417 0.695902)
(0.00597004 0.0255971 0.710607)
(0.00204778 0.0267927 0.718142)
(-0.00204784 0.0267927 0.718142)
(-0.0059701 0.025597 0.710607)
(-0.00939437 0.0233417 0.695902)
(-0.0121815 0.0202128 0.674751)
(-0.0140253 0.0166298 0.648326)
(0.0236591 0.0278821 0.849901)
(0.0204769 0.0334463 0.880874)
(0.0157664 0.0383056 0.905364)
(0.00998535 0.0418047 0.922268)
(0.0034198 0.0436532 0.93089)
(-0.00341989 0.0436532 0.93089)
(-0.00998544 0.0418047 0.922268)
(-0.0157665 0.0383056 0.905364)
(-0.020477 0.0334463 0.880874)
(-0.0236592 0.027882 0.849901)
(0.0330478 0.038769 1.01868)
(0.0284106 0.0458714 1.05131)
(0.0217758 0.052036 1.07673)
(0.0137312 0.0564499 1.09413)
(0.00469274 0.0587703 1.10296)
(-0.00469285 0.0587703 1.10296)
(-0.0137313 0.0564499 1.09413)
(-0.0217759 0.052036 1.07673)
(-0.0284107 0.0458714 1.05131)
(-0.0330479 0.0387689 1.01868)
(0.0410459 0.0479407 1.15689)
(0.0349965 0.0559023 1.18889)
(0.0266675 0.0627432 1.21341)
(0.0167353 0.0676049 1.23004)
(0.00570589 0.0701465 1.23842)
(-0.00570603 0.0701465 1.23842)
(-0.0167355 0.0676049 1.23004)
(-0.0266677 0.0627432 1.21341)
(-0.0349966 0.0559023 1.18889)
(-0.0410461 0.0479407 1.15689)
(0.0469742 0.0546133 1.26762)
(0.0396866 0.0626861 1.29735)
(0.0300468 0.0695286 1.31974)
(0.0187623 0.0743517 1.33477)
(0.00638121 0.0768591 1.34231)
(-0.00638138 0.0768591 1.34231)
(-0.0187625 0.0743517 1.33477)
(-0.030047 0.0695285 1.31974)
(-0.0396868 0.0626861 1.29735)
(-0.0469744 0.0546132 1.26762)
(0.0504979 0.0584033 1.35432)
(0.0422543 0.0658748 1.3808)
(0.0317774 0.0720975 1.4004)
(0.0197437 0.0764479 1.41342)
(0.00669823 0.078698 1.4199)
(-0.00669842 0.078698 1.4199)
(-0.0197439 0.0764479 1.41342)
(-0.0317776 0.0720974 1.4004)
(-0.0422545 0.0658748 1.3808)
(-0.0504981 0.0584033 1.35432)
(0.0515904 0.0592523 1.42046)
(0.0427563 0.0655164 1.44335)
(0.0319302 0.0705904 1.46)
(0.0197344 0.074118 1.47093)
(0.00667733 0.0759339 1.47632)
(-0.00667755 0.0759339 1.47632)
(-0.0197346 0.074118 1.47093)
(-0.0319304 0.0705904 1.46)
(-0.0427565 0.0655164 1.44335)
(-0.0515906 0.0592523 1.42046)
(0.0505185 0.0578031 1.46922)
(0.0414679 0.0617831 1.48903)
(0.0306706 0.0652751 1.50291)
(0.018838 0.0676895 1.51185)
(0.00635431 0.068925 1.51621)
(-0.00635453 0.068925 1.51621)
(-0.0188382 0.0676895 1.51185)
(-0.0306708 0.0652751 1.50291)
(-0.0414681 0.0617831 1.48903)
(-0.0505187 0.0578031 1.46922)
(9.11899e-05 9.40086e-05 0.137309)
(8.92929e-05 0.000125742 0.144165)
(6.66896e-05 0.000161997 0.149738)
(4.57845e-05 0.000187943 0.153658)
(1.58462e-05 0.000202632 0.155682)
(-1.58552e-05 0.000202631 0.155682)
(-4.57939e-05 0.000187941 0.153658)
(-6.67001e-05 0.000161993 0.149738)
(-8.93047e-05 0.000125736 0.144165)
(-9.12013e-05 9.39994e-05 0.137309)
(0.00187324 0.00215926 0.391535)
(0.00168346 0.0026787 0.409485)
(0.00131978 0.00316484 0.424002)
(0.000852809 0.00352675 0.434178)
(0.000294439 0.00372308 0.439419)
(-0.000294467 0.00372308 0.439419)
(-0.000852838 0.00352674 0.434178)
(-0.00131981 0.00316483 0.424002)
(-0.00168349 0.00267868 0.409485)
(-0.00187328 0.00215924 0.391535)
(0.00506926 0.00587845 0.619585)
(0.00450741 0.00719788 0.645753)
(0.00353049 0.00840484 0.666754)
(0.00226663 0.00930121 0.681407)
(0.000781098 0.00978371 0.688931)
(-0.000781145 0.00978371 0.688931)
(-0.00226668 0.0093012 0.681407)
(-0.00353054 0.00840482 0.666754)
(-0.00450746 0.00719786 0.645753)
(-0.00506931 0.00587842 0.619585)
(0.00921167 0.0106972 0.820019)
(0.00812086 0.0129368 0.851515)
(0.00633512 0.0149588 0.876542)
(0.00404725 0.0164505 0.893899)
(0.00139182 0.0172488 0.902779)
(-0.00139189 0.0172488 0.902779)
(-0.00404732 0.0164505 0.893899)
(-0.00633519 0.0149588 0.876542)
(-0.00812093 0.0129368 0.851515)
(-0.00921174 0.0106972 0.820019)
(0.0136114 0.015792 0.99269)
(0.0118965 0.0188505 1.02687)
(0.00923052 0.0215802 1.05369)
(0.00586865 0.0235781 1.07217)
(0.00201366 0.0246412 1.08158)
(-0.00201374 0.0246412 1.08158)
(-0.00586874 0.0235781 1.07217)
(-0.00923061 0.0215801 1.05369)
(-0.0118966 0.0188505 1.02687)
(-0.0136115 0.015792 0.99269)
(0.0176967 0.0204832 1.13856)
(0.0153283 0.0241074 1.17316)
(0.0118202 0.0273024 1.19996)
(0.00747815 0.0296212 1.21827)
(0.0025598 0.0308479 1.22755)
(-0.00255991 0.0308479 1.22755)
(-0.00747826 0.0296212 1.21827)
(-0.0118203 0.0273024 1.19996)
(-0.0153284 0.0241073 1.17316)
(-0.0176968 0.0204832 1.13856)
(0.0210447 0.0242744 1.25937)
(0.0180563 0.0281279 1.29264)
(0.0138316 0.0314775 1.31803)
(0.00870653 0.0338872 1.33524)
(0.00297287 0.0351546 1.34392)
(-0.00297299 0.0351546 1.34392)
(-0.00870665 0.0338872 1.33524)
(-0.0138317 0.0314774 1.31803)
(-0.0180564 0.0281279 1.29264)
(-0.0210448 0.0242744 1.25937)
(0.0233762 0.0268381 1.35736)
(0.0198602 0.0305594 1.38808)
(0.0151082 0.0337394 1.4112)
(0.00946079 0.0360066 1.42674)
(0.00322203 0.0371922 1.43454)
(-0.00322218 0.0371922 1.43454)
(-0.00946094 0.0360066 1.42674)
(-0.0151083 0.0337394 1.4112)
(-0.0198603 0.0305594 1.38808)
(-0.0233763 0.0268381 1.35736)
(0.0245727 0.0280222 1.43492)
(0.0206677 0.0312752 1.46252)
(0.0156035 0.0339787 1.48301)
(0.00971528 0.0358899 1.49663)
(0.00329915 0.0368831 1.50342)
(-0.0032993 0.0368831 1.50342)
(-0.00971543 0.0358899 1.49663)
(-0.0156037 0.0339787 1.48301)
(-0.0206679 0.0312751 1.46252)
(-0.0245729 0.0280222 1.43492)
(0.0246795 0.0280663 1.49435)
(0.0205208 0.0302824 1.51925)
(0.0153273 0.0322196 1.53708)
(0.00947646 0.0335734 1.54875)
(0.00320678 0.0342708 1.5545)
(-0.00320694 0.0342708 1.5545)
(-0.00947661 0.0335734 1.54875)
(-0.0153275 0.0322196 1.53708)
(-0.0205209 0.0302824 1.51925)
(-0.0246797 0.0280663 1.49435)
(6.55284e-05 8.95994e-05 0.135341)
(4.53214e-05 0.000113615 0.14205)
(2.69514e-05 0.000127377 0.147475)
(1.5761e-05 0.000133762 0.151284)
(5.01839e-06 0.000136599 0.153249)
(-5.02578e-06 0.000136599 0.153249)
(-1.57687e-05 0.00013376 0.151284)
(-2.69595e-05 0.000127374 0.147475)
(-4.533e-05 0.00011361 0.14205)
(-6.55369e-05 8.95924e-05 0.135341)
(0.000745899 0.000898298 0.38589)
(0.000635234 0.00111386 0.403525)
(0.000481438 0.00129335 0.417732)
(0.000305418 0.00142006 0.42768)
(0.000104516 0.00148717 0.4328)
(-0.000104538 0.00148717 0.4328)
(-0.00030544 0.00142006 0.42768)
(-0.000481462 0.00129334 0.417732)
(-0.000635259 0.00111385 0.403525)
(-0.000745923 0.00089828 0.38589)
(0.00201277 0.0023835 0.611458)
(0.00174705 0.00292721 0.637344)
(0.00134861 0.00339839 0.658063)
(0.000859243 0.0037406 0.672513)
(0.000295054 0.00392305 0.679932)
(-0.000295091 0.00392305 0.679932)
(-0.00085928 0.0037406 0.672513)
(-0.00134865 0.00339837 0.658063)
(-0.00174709 0.0029272 0.637344)
(-0.0020128 0.00238347 0.611458)
(0.00371556 0.00436924 0.811169)
(0.00323573 0.00531259 0.842631)
(0.00250727 0.0061392 0.867597)
(0.00159684 0.00674292 0.884919)
(0.000548414 0.00706473 0.893784)
(-0.000548465 0.00706473 0.893784)
(-0.00159689 0.00674291 0.884919)
(-0.00250732 0.00613919 0.867597)
(-0.00323578 0.00531256 0.842631)
(-0.00371561 0.00436921 0.811169)
(0.00561449 0.00657005 0.98498)
(0.00487773 0.00789832 1.01953)
(0.00377481 0.00906259 1.04666)
(0.0023984 0.00991136 1.06537)
(0.000822827 0.0103626 1.07491)
(-0.000822892 0.0103626 1.07491)
(-0.00239847 0.00991136 1.06537)
(-0.00377488 0.00906257 1.04666)
(-0.00487779 0.00789829 1.01953)
(-0.00561456 0.00657002 0.98498)
(0.00747787 0.00871147 1.13366)
(0.00646212 0.0103378 1.16913)
(0.00498228 0.0117551 1.19665)
(0.00315459 0.0127832 1.2155)
(0.00108043 0.0133275 1.22507)
(-0.00108051 0.0133275 1.22507)
(-0.00315467 0.0127832 1.2155)
(-0.00498237 0.0117551 1.19665)
(-0.0064622 0.0103377 1.16913)
(-0.00747795 0.00871144 1.13366)
(0.0091043 0.0105569 1.25857)
(0.00781154 0.0123435 1.29321)
(0.0059917 0.0138849 1.31975)
(0.00377792 0.0149954 1.3378)
(0.00129123 0.0155805 1.34692)
(-0.00129133 0.0155805 1.34692)
(-0.00377801 0.0149954 1.3378)
(-0.0059918 0.0138849 1.31975)
(-0.00781163 0.0123435 1.29321)
(-0.00910438 0.0105569 1.25857)
(0.0103359 0.0119198 1.3615)
(0.00879473 0.0137018 1.39405)
(0.00670537 0.0152178 1.41868)
(0.0042082 0.0163011 1.43531)
(0.00143491 0.0168688 1.44367)
(-0.00143501 0.0168688 1.44367)
(-0.0042083 0.0163011 1.43531)
(-0.00670547 0.0152178 1.41868)
(-0.00879483 0.0137018 1.39405)
(-0.010336 0.0119198 1.3615)
(0.0110799 0.0126816 1.44439)
(0.00934265 0.0142925 1.47417)
(0.00707318 0.0156291 1.49645)
(0.00441491 0.0165762 1.51134)
(0.0015012 0.0170693 1.51878)
(-0.00150131 0.0170693 1.51878)
(-0.00441502 0.0165762 1.51134)
(-0.00707328 0.0156291 1.49645)
(-0.00934275 0.0142925 1.47417)
(-0.01108 0.0126816 1.44439)
(0.0113214 0.0129136 1.50903)
(0.00944088 0.0140675 1.53645)
(0.00707392 0.0150646 1.55625)
(0.00438497 0.0157625 1.56929)
(0.00148582 0.0161228 1.57575)
(-0.00148593 0.0161228 1.57575)
(-0.00438508 0.0157625 1.56929)
(-0.00707402 0.0150646 1.55625)
(-0.00944098 0.0140675 1.53645)
(-0.0113215 0.0129136 1.50903)
(6.45731e-06 6.83658e-06 0.134256)
(5.01557e-06 9.98193e-06 0.140921)
(2.81461e-06 1.26646e-05 0.146307)
(2.09665e-06 1.43183e-05 0.150091)
(6.99442e-07 1.52721e-05 0.152043)
(-7.05291e-07 1.52717e-05 0.152043)
(-2.10264e-06 1.43169e-05 0.150091)
(-2.8208e-06 1.26622e-05 0.146307)
(-5.02189e-06 9.97811e-06 0.140921)
(-6.46335e-06 6.83153e-06 0.134256)
(0.000234966 0.000272672 0.38291)
(0.000206831 0.000340813 0.400438)
(0.000160323 0.000401775 0.414554)
(0.000103377 0.000446804 0.424442)
(3.5626e-05 0.000471231 0.429532)
(-3.56432e-05 0.00047123 0.429532)
(-0.000103395 0.0004468 0.424442)
(-0.000160341 0.000401768 0.414554)
(-0.000206849 0.000340804 0.400438)
(-0.000234983 0.000272659 0.38291)
(0.000700434 0.000813958 0.607091)
(0.000618992 0.00100594 0.632869)
(0.000484111 0.00117844 0.653502)
(0.00031121 0.00130695 0.667897)
(0.000107302 0.00137636 0.675289)
(-0.00010733 0.00137636 0.675289)
(-0.000311239 0.00130694 0.667897)
(-0.000484141 0.00117843 0.653502)
(-0.000619022 0.00100593 0.632869)
(-0.000700462 0.000813938 0.607091)
(0.00136359 0.00158358 0.806119)
(0.00120317 0.00193704 0.837555)
(0.000941683 0.00225434 0.86251)
(0.000603832 0.00249048 0.879836)
(0.000208045 0.00261762 0.888706)
(-0.000208084 0.00261762 0.888706)
(-0.000603871 0.00249048 0.879836)
(-0.000941723 0.00225433 0.86251)
(-0.00120321 0.00193702 0.837555)
(-0.00136362 0.00158356 0.806119)
(0.00213811 0.00247806 0.980032)
(0.00187866 0.00299718 1.01471)
(0.00146688 0.00346115 1.04197)
(0.000937708 0.00380496 1.06079)
(0.000322649 0.00398936 1.07039)
(-0.000322698 0.00398936 1.07039)
(-0.000937757 0.00380496 1.06079)
(-0.00146693 0.00346114 1.04197)
(-0.00187871 0.00299716 1.01471)
(-0.00213815 0.00247803 0.980032)
(0.00293177 0.00338763 1.12957)
(0.0025607 0.00404517 1.16538)
(0.00199121 0.00462847 1.19321)
(0.0012682 0.00505808 1.2123)
(0.000435599 0.00528746 1.222)
(-0.000435658 0.00528746 1.222)
(-0.00126826 0.00505807 1.2123)
(-0.00199127 0.00462846 1.19321)
(-0.00256076 0.00404515 1.16538)
(-0.00293182 0.0033876 1.12957)
(0.00365714 0.00420925 1.25598)
(0.00317101 0.00495285 1.29119)
(0.00245281 0.00560559 1.31823)
(0.00155557 0.00608281 1.33666)
(0.000533186 0.00633634 1.34598)
(-0.000533254 0.00633634 1.34598)
(-0.00155564 0.0060828 1.33666)
(-0.00245288 0.00560558 1.31823)
(-0.00317108 0.00495283 1.29119)
(-0.0036572 0.00420923 1.25598)
(0.0042397 0.00485471 1.36089)
(0.00364568 0.00561592 1.39422)
(0.0028027 0.00627484 1.41954)
(0.00176897 0.00675233 1.43667)
(0.000604863 0.00700453 1.4453)
(-0.000604939 0.00700452 1.4453)
(-0.00176905 0.00675232 1.43667)
(-0.00280277 0.00627483 1.41954)
(-0.00364575 0.0056159 1.39422)
(-0.00423976 0.00485469 1.36089)
(0.00463034 0.00526293 1.44604)
(0.0039447 0.00596872 1.47681)
(0.00301014 0.00656397 1.49991)
(0.00188895 0.00699077 1.51541)
(0.000643976 0.00721447 1.52317)
(-0.000644057 0.00721447 1.52317)
(-0.00188903 0.00699076 1.51541)
(-0.00301021 0.00656396 1.49991)
(-0.00394477 0.00596871 1.47681)
(-0.00463041 0.00526291 1.44604)
(0.00481162 0.0054572 1.51301)
(0.00404854 0.00598219 1.54161)
(0.00305514 0.00643554 1.56235)
(0.00190284 0.00675538 1.57606)
(0.000646243 0.00692124 1.58286)
(-0.000646327 0.00692124 1.58286)
(-0.00190293 0.00675538 1.57606)
(-0.00305522 0.00643554 1.56235)
(-0.00404862 0.00598219 1.5416)
(-0.00481169 0.00545719 1.51301)
(7.05795e-06 1.08371e-05 0.134023)
(3.55211e-06 1.39883e-05 0.14067)
(1.23074e-06 1.51571e-05 0.146038)
(4.72685e-07 1.53464e-05 0.149808)
(8.28729e-08 1.53314e-05 0.151752)
(-8.75124e-08 1.5331e-05 0.151752)
(-4.77299e-07 1.53453e-05 0.149808)
(-1.23533e-06 1.51552e-05 0.146038)
(-3.55663e-06 1.39856e-05 0.14067)
(-7.06206e-06 1.08337e-05 0.134023)
(9.53891e-05 0.000116942 0.382142)
(7.8543e-05 0.000145913 0.399621)
(5.82007e-05 0.00016852 0.413688)
(3.65472e-05 0.000184065 0.42354)
(1.24293e-05 0.000192204 0.42861)
(-1.24425e-05 0.000192203 0.42861)
(-3.65605e-05 0.000184062 0.42354)
(-5.82138e-05 0.000168515 0.413688)
(-7.85559e-05 0.000145906 0.399621)
(-9.54007e-05 0.000116933 0.382142)
(0.000275751 0.000328599 0.605871)
(0.000236607 0.000406505 0.631591)
(0.000181508 0.000472335 0.652165)
(0.00011539 0.000519946 0.666519)
(3.9569e-05 0.00054531 0.673889)
(-3.95906e-05 0.000545308 0.673889)
(-0.000115411 0.000519941 0.666519)
(-0.00018153 0.000472327 0.652165)
(-0.000236628 0.000406495 0.631591)
(-0.000275771 0.000328586 0.605871)
(0.000536029 0.000631662 0.804653)
(0.000465537 0.000774838 0.836054)
(0.000360688 0.000899056 0.860973)
(0.000229981 0.000990098 0.878274)
(7.90268e-05 0.00103879 0.887132)
(-7.90562e-05 0.00103879 0.887132)
(-0.000230011 0.000990093 0.878274)
(-0.000360717 0.000899047 0.860973)
(-0.000465566 0.000774825 0.836054)
(-0.000536055 0.000631645 0.804653)
(0.000847782 0.000992241 0.978594)
(0.000738153 0.00120504 1.0133)
(0.000573162 0.00139125 1.04058)
(0.000365346 0.00152808 1.05941)
(0.000125546 0.00160121 1.06901)
(-0.000125582 0.00160121 1.06901)
(-0.000365383 0.00152807 1.05941)
(-0.000573198 0.00139124 1.04058)
(-0.000738189 0.00120503 1.0133)
(-0.000847815 0.000992222 0.978594)
(0.00117693 0.00136993 1.12845)
(0.00102259 0.00164408 1.16438)
(0.000792849 0.00188387 1.1923)
(0.000504327 0.00205965 1.21146)
(0.000173135 0.00215335 1.2212)
(-0.000173179 0.00215335 1.2212)
(-0.00050437 0.00205964 1.21146)
(-0.000792892 0.00188386 1.1923)
(-0.00102263 0.00164407 1.16438)
(-0.00117697 0.00136991 1.12845)
(0.00148787 0.00172278 1.25547)
(0.00128643 0.0020387 1.29089)
(0.000993786 0.00231329 1.31811)
(0.000630093 0.00251354 1.33667)
(0.000215961 0.00261986 1.34607)
(-0.000216011 0.00261986 1.34607)
(-0.000630142 0.00251353 1.33667)
(-0.000993835 0.00231328 1.31811)
(-0.00128648 0.00203868 1.29089)
(-0.00148792 0.00172276 1.25547)
(0.00174756 0.00201147 1.36121)
(0.00150079 0.00234126 1.39486)
(0.0011535 0.00262479 1.42044)
(0.000728323 0.00282999 1.43778)
(0.000249098 0.00293836 1.44651)
(-0.000249153 0.00293836 1.44651)
(-0.000728378 0.00282998 1.43777)
(-0.00115355 0.00262478 1.42044)
(-0.00150084 0.00234125 1.39486)
(-0.00174761 0.00201145 1.36121)
(0.0019317 0.00220542 1.44733)
(0.0016453 0.00251753 1.47852)
(0.00125611 0.00277971 1.50198)
(0.000788855 0.00296759 1.51773)
(0.00026905 0.00306608 1.52562)
(-0.00026911 0.00306608 1.52562)
(-0.000788913 0.00296759 1.51773)
(-0.00125617 0.00277971 1.50198)
(-0.00164536 0.00251752 1.47852)
(-0.00193175 0.00220541 1.44733)
(0.00202874 0.00230961 1.51534)
(0.00170778 0.00254808 1.54446)
(0.00129005 0.00275295 1.56562)
(0.000804331 0.00289751 1.57962)
(0.000273313 0.00297251 1.58657)
(-0.000273376 0.00297251 1.58657)
(-0.000804392 0.00289751 1.57962)
(-0.00129011 0.00275295 1.56562)
(-0.00170784 0.00254807 1.54445)
(-0.00202879 0.0023096 1.51534)
(-2.73303e-07 -1.39979e-07 0.133889)
(-6.89658e-07 1.26878e-07 0.14053)
(-8.27702e-07 1.45564e-07 0.145892)
(-5.34513e-07 6.28492e-08 0.149659)
(-1.96351e-07 1.45105e-08 0.151601)
(1.92837e-07 1.42284e-08 0.151601)
(5.31052e-07 6.20077e-08 0.149659)
(8.24342e-07 1.44176e-07 0.145892)
(6.86635e-07 1.25021e-07 0.14053)
(2.70584e-07 -1.42219e-07 0.133889)
(2.74095e-05 3.23897e-05 0.38174)
(2.32238e-05 4.10347e-05 0.399202)
(1.75795e-05 4.82636e-05 0.413254)
(1.12336e-05 5.34914e-05 0.423095)
(3.84772e-06 5.63044e-05 0.42816)
(-3.85759e-06 5.63037e-05 0.42816)
(-1.12433e-05 5.34892e-05 0.423095)
(-1.75891e-05 4.826e-05 0.413254)
(-2.32326e-05 4.10299e-05 0.399202)
(-2.74172e-05 3.23836e-05 0.38174)
(9.03188e-05 0.000105544 0.605243)
(7.88373e-05 0.000131818 0.63094)
(6.12779e-05 0.000154826 0.651496)
(3.9318e-05 0.000171919 0.665837)
(1.35387e-05 0.000181149 0.673201)
(-1.35547e-05 0.000181148 0.673201)
(-3.93338e-05 0.000171916 0.665837)
(-6.12933e-05 0.00015482 0.651496)
(-7.88519e-05 0.000131811 0.63094)
(-9.03316e-05 0.000105534 0.605243)
(0.000186279 0.000216612 0.803879)
(0.000163808 0.000267719 0.835264)
(0.000128175 0.000313105 0.860171)
(8.22822e-05 0.000347006 0.877465)
(2.83619e-05 0.000365309 0.886319)
(-2.83835e-05 0.000365308 0.886319)
(-8.23036e-05 0.000347002 0.877465)
(-0.000128196 0.000313098 0.860171)
(-0.000163828 0.00026771 0.835264)
(-0.000186297 0.000216601 0.803879)
(0.000305496 0.000353818 0.97778)
(0.000268779 0.00043256 1.01249)
(0.00021048 0.000502706 1.03977)
(0.000134945 0.000555059 1.05861)
(4.64973e-05 0.000583267 1.06822)
(-4.65241e-05 0.000583265 1.06822)
(-0.000134971 0.000555054 1.05861)
(-0.000210506 0.000502699 1.03977)
(-0.000268803 0.000432549 1.01249)
(-0.000305519 0.000353805 0.97778)
(0.000435217 0.000501991 1.12772)
(0.000381766 0.000606162 1.16368)
(0.00029833 0.000698695 1.19164)
(0.00019079 0.000767478 1.21082)
(6.56648e-05 0.000804418 1.22058)
(-6.56964e-05 0.000804417 1.22058)
(-0.000190821 0.000767474 1.21082)
(-0.000298361 0.000698687 1.19164)
(-0.000381795 0.000606152 1.16368)
(-0.000435243 0.000501978 1.12772)
(0.000561406 0.000644578 1.25493)
(0.000489867 0.000767209 1.29043)
(0.00038129 0.00087535 1.31772)
(0.000243001 0.000955237 1.33634)
(8.34917e-05 0.00099795 1.34577)
(-8.35277e-05 0.000997948 1.34577)
(-0.000243036 0.000955232 1.33634)
(-0.000381325 0.000875342 1.31772)
(-0.0004899 0.000767199 1.29043)
(-0.000561436 0.000644565 1.25493)
(0.000670449 0.000765435 1.36097)
(0.000580984 0.00089583 1.39474)
(0.000449791 0.00100949 1.42043)
(0.000285404 0.00109273 1.43785)
(9.78417e-05 0.00113697 1.44663)
(-9.78814e-05 0.00113697 1.44663)
(-0.000285444 0.00109272 1.43785)
(-0.000449829 0.00100949 1.42043)
(-0.00058102 0.00089582 1.39474)
(-0.000670483 0.000765423 1.36097)
(0.000751909 0.000851696 1.44746)
(0.000645976 0.000977299 1.47881)
(0.000496515 0.00108405 1.50242)
(0.000313237 0.00116128 1.51828)
(0.000107063 0.00120198 1.52623)
(-0.000107106 0.00120198 1.52623)
(-0.000313279 0.00116127 1.51828)
(-0.000496557 0.00108404 1.50242)
(-0.000646015 0.000977291 1.47881)
(-0.000751946 0.000851685 1.44746)
(0.00079992 0.00090509 1.51587)
(0.000678301 0.00100344 1.5452)
(0.000515435 0.00108778 1.56654)
(0.000322629 0.00114763 1.58067)
(0.00010983 0.00117879 1.58769)
(-0.000109875 0.00117879 1.58769)
(-0.000322673 0.00114763 1.58067)
(-0.000515478 0.00108777 1.56654)
(-0.000678343 0.00100344 1.5452)
(-0.00079996 0.000905082 1.51587)
(6.47114e-07 1.29897e-06 0.133866)
(6.49112e-09 1.73309e-06 0.140505)
(-2.9368e-07 1.77945e-06 0.145865)
(-2.65159e-07 1.68368e-06 0.14963)
(-1.08661e-07 1.60636e-06 0.151571)
(1.06172e-07 1.60618e-06 0.151571)
(2.62728e-07 1.68312e-06 0.14963)
(2.91369e-07 1.77853e-06 0.145865)
(-8.56792e-09 1.73186e-06 0.140505)
(-6.48896e-07 1.29751e-06 0.133866)
(1.12365e-05 1.43033e-05 0.381648)
(8.65234e-06 1.80663e-05 0.399103)
(6.08893e-06 2.07096e-05 0.413147)