/*--------------------------------*- C++ -*----------------------------------*\
| =========                 |                                                 |
| \\      /  F ield         | OpenFOAM: The Open Source CFD Toolbox           |
|  \\    /   O peration     | Version:  2106                                  |
|   \\  /    A nd           | Website:  www.openfoam.com                      |
|    \\/     M anipulation  |                                                 |
\*---------------------------------------------------------------------------*/
FoamFile
{
    version     2.0;
    format      ascii;
    arch        "LSB;label=32;scalar=64";
    class       volVectorField;
    location    "0.25";
    object      U;
}
// * * * * * * * * * * * * * * * * * * * * * * * * * * * * * * * * * * * * * //

dimensions      [0 1 -1 0 0 0 0];

internalField   nonuniform List<vector> 
10000
(
(0.062562 0.0737222 0.345115)
(0.053356 0.0838422 0.359597)
(0.0398468 0.0929925 0.370964)
(0.0247187 0.099374 0.378814)
(0.00837698 0.102673 0.382803)
(-0.008377 0.102673 0.382803)
(-0.0247187 0.099374 0.378814)
(-0.0398468 0.0929925 0.370964)
(-0.053356 0.0838422 0.359597)
(-0.0625621 0.0737222 0.345115)
(0.171907 0.203959 0.727991)
(0.145098 0.231157 0.747655)
(0.108316 0.255076 0.762307)
(0.0670108 0.271631 0.772213)
(0.0226822 0.280169 0.777166)
(-0.0226822 0.280169 0.777166)
(-0.0670108 0.271631 0.772213)
(-0.108316 0.255076 0.762307)
(-0.145098 0.231157 0.747655)
(-0.171907 0.203959 0.727991)
(0.22214 0.263792 0.924071)
(0.185375 0.295363 0.93992)
(0.137484 0.322924 0.951003)
(0.0846276 0.34177 0.958318)
(0.0285735 0.351423 0.961907)
(-0.0285736 0.351423 0.961907)
(-0.0846277 0.34177 0.958318)
(-0.137484 0.322924 0.951003)
(-0.185375 0.295363 0.93992)
(-0.22214 0.263792 0.924071)
(0.236646 0.280578 1.02332)
(0.195504 0.310184 1.03385)
(0.144073 0.336078 1.04053)
(0.0882606 0.353575 1.04481)
(0.0297304 0.362475 1.04684)
(-0.0297305 0.362475 1.04684)
(-0.0882607 0.353574 1.04481)
(-0.144073 0.336078 1.04053)
(-0.195504 0.310184 1.03385)
(-0.236646 0.280578 1.02332)
(0.234072 0.277048 1.07175)
(0.191735 0.302625 1.07771)
(0.140516 0.325127 1.08085)
(0.0857195 0.340187 1.08272)
(0.0288158 0.347797 1.08357)
(-0.028816 0.347797 1.08357)
(-0.0857196 0.340187 1.08272)
(-0.140516 0.325127 1.08085)
(-0.191735 0.302625 1.07771)
(-0.234072 0.277048 1.07175)
(0.222372 0.262741 1.09283)
(0.180711 0.283588 1.09539)
(0.131768 0.302076 1.09602)
(0.0800671 0.314364 1.09625)
(0.0268651 0.320533 1.09629)
(-0.0268652 0.320533 1.09629)
(-0.0800673 0.314364 1.09625)
(-0.131768 0.302076 1.09602)
(-0.180711 0.283587 1.09539)
(-0.222373 0.262741 1.09283)
(0.205361 0.242045 1.09934)
(0.165556 0.257958 1.09957)
(0.120135 0.272219 1.09861)
(0.0727236 0.281667 1.09781)
(0.0243569 0.286384 1.09736)
(-0.0243571 0.286384 1.09736)
(-0.0727238 0.281667 1.09781)
(-0.120135 0.272219 1.09861)
(-0.165556 0.257958 1.09957)
(-0.205361 0.242044 1.09934)
(0.185438 0.217768 1.09848)
(0.14828 0.22885 1.09722)
(0.107108 0.238927 1.09534)
(0.0646103 0.245628 1.09397)
(0.0216026 0.24897 1.09325)
(-0.0216029 0.24897 1.09325)
(-0.0646106 0.245628 1.09397)
(-0.107108 0.238927 1.09534)
(-0.14828 0.22885 1.09722)
(-0.185439 0.217768 1.09848)
(0.164195 0.191774 1.09426)
(0.130307 0.198279 1.09207)
(0.0937182 0.204366 1.08976)
(0.0563461 0.208536 1.08813)
(0.0188091 0.210635 1.0873)
(-0.0188094 0.210635 1.0873)
(-0.0563464 0.208536 1.08813)
(-0.0937185 0.204366 1.08976)
(-0.130307 0.198278 1.09207)
(-0.164195 0.191774 1.09426)
(0.14283 0.165706 1.08894)
(0.112878 0.166277 1.08625)
(0.0806116 0.16909 1.08377)
(0.0482836 0.171151 1.08208)
(0.0160887 0.172209 1.08124)
(-0.016089 0.172209 1.08124)
(-0.048284 0.171151 1.08208)
(-0.0806118 0.16909 1.08376)
(-0.112878 0.166277 1.08625)
(-0.14283 0.165705 1.08894)
(0.0111624 0.014263 0.26733)
(0.00937528 0.017545 0.279635)
(0.00707865 0.0201802 0.289711)
(0.00447982 0.0219865 0.296724)
(0.00153264 0.0229273 0.300314)
(-0.00153267 0.0229273 0.300314)
(-0.00447985 0.0219865 0.296724)
(-0.00707868 0.0201802 0.289711)
(-0.0093753 0.0175449 0.279635)
(-0.0111624 0.014263 0.26733)
(0.0539554 0.0653091 0.631969)
(0.0463104 0.0785598 0.654035)
(0.0354322 0.0899077 0.671728)
(0.0223943 0.0979437 0.683894)
(0.00766259 0.10216 0.690069)
(-0.00766267 0.10216 0.690069)
(-0.0223944 0.0979437 0.683894)
(-0.0354323 0.0899077 0.671728)
(-0.0463105 0.0785597 0.654035)
(-0.0539555 0.065309 0.631969)
(0.0965297 0.115348 0.880311)
(0.0822987 0.136354 0.904279)
(0.0626199 0.154367 0.923072)
(0.0393348 0.167066 0.935835)
(0.0134179 0.173693 0.942262)
(-0.0134181 0.173693 0.942262)
(-0.0393349 0.167066 0.935835)
(-0.06262 0.154367 0.923072)
(-0.0822988 0.136354 0.904279)
(-0.0965298 0.115348 0.880311)
(0.131508 0.155997 1.04894)
(0.11113 0.181525 1.07102)
(0.0839874 0.2033 1.08791)
(0.0524462 0.218532 1.09923)
(0.0178377 0.226434 1.10488)
(-0.0178379 0.226434 1.10488)
(-0.0524464 0.218532 1.09923)
(-0.0839876 0.2033 1.08791)
(-0.11113 0.181525 1.07102)
(-0.131508 0.155997 1.04894)
(0.156046 0.184063 1.16216)
(0.130683 0.211037 1.18071)
(0.0981112 0.233877 1.19449)
(0.0609347 0.249726 1.20358)
(0.0206687 0.257898 1.20808)
(-0.0206689 0.257898 1.20808)
(-0.0609349 0.249726 1.20358)
(-0.0981114 0.233877 1.19449)
(-0.130684 0.211037 1.18071)
(-0.156046 0.184062 1.16216)
(0.170315 0.199871 1.23661)
(0.141365 0.225836 1.25112)
(0.105451 0.247613 1.26153)
(0.065162 0.262609 1.26828)
(0.0220467 0.270296 1.27158)
(-0.022047 0.270296 1.27158)
(-0.0651623 0.262609 1.26828)
(-0.105451 0.247613 1.26153)
(-0.141365 0.225836 1.25112)
(-0.170316 0.199871 1.23661)
(0.17551 0.204923 1.28411)
(0.144367 0.228055 1.29472)
(0.10702 0.24721 1.302)
(0.0658152 0.260309 1.3066)
(0.0222146 0.266988 1.30881)
(-0.022215 0.266988 1.30881)
(-0.0658155 0.260309 1.3066)
(-0.10702 0.24721 1.302)
(-0.144367 0.228055 1.29472)
(-0.175511 0.204922 1.28411)
(0.173101 0.201001 1.31309)
(0.141092 0.220034 1.32025)
(0.103966 0.235519 1.32488)
(0.0636507 0.24605 1.32768)
(0.021436 0.2514 1.32899)
(-0.0214364 0.2514 1.32899)
(-0.0636511 0.24605 1.32768)
(-0.103967 0.235519 1.32488)
(-0.141092 0.220033 1.32025)
(-0.173101 0.201001 1.31308)
(0.164646 0.189906 1.32952)
(0.133049 0.204036 1.33386)
(0.0974675 0.215194 1.33638)
(0.0594105 0.222799 1.33779)
(0.0199645 0.226659 1.33841)
(-0.019965 0.226659 1.33841)
(-0.0594109 0.222799 1.33779)
(-0.097468 0.215194 1.33638)
(-0.133049 0.204036 1.33386)
(-0.164646 0.189906 1.32952)
(0.151784 0.174407 1.33773)
(0.121857 0.181304 1.3399)
(0.0885405 0.187951 1.34087)
(0.0536991 0.192524 1.34126)
(0.0180015 0.194845 1.34137)
(-0.018002 0.194845 1.34137)
(-0.0536996 0.192524 1.34126)
(-0.0885409 0.187951 1.34087)
(-0.121858 0.181304 1.3399)
(-0.151785 0.174407 1.33773)
(0.00108533 0.00121042 0.159736)
(0.0010998 0.00154758 0.168142)
(0.000857534 0.00194668 0.175155)
(0.000573608 0.00224241 0.180118)
(0.000199853 0.00240614 0.182686)
(-0.00019988 0.00240614 0.182686)
(-0.000573635 0.0022424 0.180118)
(-0.000857561 0.00194667 0.175155)
(-0.00109983 0.00154756 0.168142)
(-0.00108535 0.0012104 0.159736)
(0.0174877 0.0202945 0.447545)
(0.0157262 0.0247524 0.468011)
(0.0123045 0.0289526 0.484802)
(0.0078997 0.0320532 0.496582)
(0.0027216 0.0337179 0.502643)
(-0.00272169 0.0337179 0.502643)
(-0.00789978 0.0320532 0.496582)
(-0.0123046 0.0289526 0.484802)
(-0.0157262 0.0247523 0.468011)
(-0.0174877 0.0202944 0.447545)
(0.0396429 0.0461564 0.694039)
(0.0349931 0.0554121 0.721907)
(0.0271684 0.063858 0.744399)
(0.0172968 0.0700269 0.760042)
(0.0059371 0.0733096 0.768048)
(-0.00593723 0.0733095 0.768048)
(-0.017297 0.0700268 0.760042)
(-0.0271685 0.063858 0.744399)
(-0.0349933 0.0554121 0.721907)
(-0.0396431 0.0461564 0.694039)
(0.0632827 0.0737492 0.898302)
(0.0551015 0.0872549 0.929622)
(0.0424486 0.0993347 0.95446)
(0.0268454 0.108059 0.971574)
(0.00918546 0.112666 0.980286)
(-0.00918565 0.112666 0.980286)
(-0.0268455 0.108059 0.971574)
(-0.0424488 0.0993347 0.95446)
(-0.0551016 0.0872549 0.929622)
(-0.0632829 0.0737492 0.898302)
(0.0840694 0.0978745 1.0635)
(0.0723351 0.114146 1.09529)
(0.0553083 0.128476 1.12003)
(0.034772 0.138717 1.13691)
(0.0118636 0.144088 1.14545)
(-0.0118639 0.144088 1.14545)
(-0.0347722 0.138717 1.13691)
(-0.0553085 0.128476 1.12003)
(-0.0723354 0.114146 1.09529)
(-0.0840696 0.0978744 1.0635)
(0.0999041 0.116022 1.1944)
(0.0850179 0.133345 1.2246)
(0.0645365 0.14838 1.24764)
(0.0403514 0.159023 1.2632)
(0.0137303 0.164569 1.27102)
(-0.0137307 0.164569 1.27102)
(-0.0403517 0.159023 1.2632)
(-0.0645368 0.14838 1.24764)
(-0.0850181 0.133345 1.2246)
(-0.0999044 0.116022 1.1944)
(0.110081 0.127395 1.29619)
(0.0926863 0.144166 1.32351)
(0.0698619 0.158496 1.34393)
(0.0434531 0.168551 1.35756)
(0.0147478 0.173759 1.36437)
(-0.0147482 0.173759 1.36437)
(-0.0434535 0.168551 1.35756)
(-0.0698623 0.158496 1.34393)
(-0.0926866 0.144166 1.32351)
(-0.110081 0.127394 1.29619)
(0.114614 0.132042 1.37382)
(0.0954965 0.146908 1.39759)
(0.0714847 0.159376 1.41501)
(0.0442387 0.168055 1.42651)
(0.0149771 0.172528 1.43221)
(-0.0149775 0.172528 1.43221)
(-0.0442391 0.168055 1.42651)
(-0.071485 0.159376 1.41501)
(-0.0954969 0.146908 1.39759)
(-0.114614 0.132042 1.37382)
(0.114008 0.130533 1.43171)
(0.0940363 0.142455 1.45184)
(0.0698964 0.152159 1.46628)
(0.0430315 0.158888 1.47568)
(0.0145308 0.162343 1.4803)
(-0.0145313 0.162343 1.4803)
(-0.043032 0.158888 1.47568)
(-0.0698969 0.152159 1.46628)
(-0.0940366 0.142455 1.45184)
(-0.114009 0.130533 1.43171)
(0.109156 0.124634 1.47365)
(0.0891765 0.131562 1.49067)
(0.0656383 0.137882 1.50238)
(0.040163 0.142249 1.50986)
(0.0135217 0.14448 1.5135)
(-0.0135222 0.14448 1.5135)
(-0.0401635 0.142249 1.50986)
(-0.0656388 0.137882 1.50238)
(-0.0891769 0.131562 1.49067)
(-0.109156 0.124634 1.47365)
(0.000684374 0.000902712 0.141185)
(0.000531919 0.00113243 0.148159)
(0.000362308 0.00129412 0.153831)
(0.000223428 0.00138897 0.157811)
(7.46082e-05 0.00143607 0.159863)
(-7.46311e-05 0.00143607 0.159863)
(-0.000223451 0.00138897 0.157811)
(-0.000362331 0.00129411 0.153831)
(-0.000531942 0.00113241 0.148159)
(-0.000684394 0.000902695 0.141185)
(0.00660426 0.00791288 0.404517)
(0.005723 0.00975364 0.422981)
(0.00439359 0.0113429 0.437908)
(0.00279954 0.0124802 0.448347)
(0.000960841 0.0130842 0.453718)
(-0.000960911 0.0130842 0.453718)
(-0.00279961 0.0124801 0.448347)
(-0.00439365 0.0113428 0.437908)
(-0.00572307 0.00975361 0.422981)
(-0.00660432 0.00791283 0.404517)
(0.01608 0.0190154 0.642002)
(0.0140015 0.0231396 0.6691)
(0.0108197 0.0267525 0.690826)
(0.00688531 0.029368 0.705949)
(0.00236321 0.0307572 0.713705)
(-0.00236333 0.0307572 0.713705)
(-0.00688543 0.029368 0.705949)
(-0.0108199 0.0267524 0.690826)
(-0.0140016 0.0231395 0.6691)
(-0.0160801 0.0190154 0.642002)
(0.0274022 0.0322164 0.851208)
(0.0237776 0.038713 0.883991)
(0.0183469 0.0444024 0.909999)
(0.0116368 0.0485163 0.927996)
(0.00398815 0.0506942 0.937191)
(-0.00398832 0.0506942 0.937191)
(-0.0116369 0.0485163 0.927996)
(-0.0183471 0.0444023 0.909999)
(-0.0237778 0.0387129 0.883991)
(-0.0274024 0.0322163 0.851208)
(0.0386326 0.045216 1.03173)
(0.0333039 0.0536187 1.06749)
(0.0255865 0.0609319 1.09551)
(0.0161608 0.0661912 1.11477)
(0.00552742 0.0689626 1.12456)
(-0.00552764 0.0689626 1.12456)
(-0.016161 0.0661912 1.11477)
(-0.0255867 0.0609319 1.09551)
(-0.0333041 0.0536186 1.06749)
(-0.0386327 0.0452159 1.03173)
(0.0484012 0.0563999 1.1846)
(0.0413919 0.0659394 1.22103)
(0.0316221 0.0741592 1.24919)
(0.0198808 0.0800279 1.2684)
(0.00678434 0.0831043 1.27813)
(-0.00678461 0.0831043 1.27813)
(-0.019881 0.0800279 1.2684)
(-0.0316223 0.0741591 1.24919)
(-0.0413921 0.0659394 1.22103)
(-0.0484014 0.0563998 1.18459)
(0.0558452 0.0647717 1.31166)
(0.0473325 0.0745644 1.34697)
(0.0359336 0.0828891 1.37386)
(0.0224821 0.0887854 1.39207)
(0.00765363 0.0918596 1.40124)
(-0.00765394 0.0918596 1.40124)
(-0.0224824 0.0887854 1.39207)
(-0.0359339 0.082889 1.37386)
(-0.0473327 0.0745644 1.34697)
(-0.0558455 0.0647716 1.31166)
(0.0604909 0.0697871 1.41524)
(0.0507838 0.0789625 1.44816)
(0.0382989 0.0866281 1.47287)
(0.023843 0.0920123 1.48946)
(0.00809678 0.0948048 1.49778)
(-0.00809715 0.0948048 1.49778)
(-0.0238434 0.0920123 1.48946)
(-0.0382992 0.086628 1.47287)
(-0.0507841 0.0789624 1.44816)
(-0.0604911 0.0697871 1.41524)
(0.062234 0.0712951 1.49782)
(0.0517442 0.0790924 1.52768)
(0.0387458 0.085423 1.54976)
(0.0239918 0.0898402 1.56444)
(0.00812529 0.092119 1.57174)
(-0.00812568 0.092119 1.57173)
(-0.0239922 0.0898402 1.56443)
(-0.0387462 0.085423 1.54976)
(-0.0517445 0.0790924 1.52767)
(-0.0622343 0.071295 1.49782)
(0.061318 0.0700441 1.5617)
(0.0504697 0.0750984 1.58883)
(0.0374158 0.0795053 1.60815)
(0.0230183 0.0825564 1.62078)
(0.00777052 0.0841195 1.62701)
(-0.00777093 0.0841195 1.62701)
(-0.0230187 0.0825564 1.62078)
(-0.0374162 0.0795053 1.60815)
(-0.05047 0.0750984 1.58882)
(-0.0613183 0.0700441 1.5617)
(0.000112205 0.000120759 0.131125)
(0.000105263 0.000159741 0.137677)
(7.75449e-05 0.000200934 0.142996)
(5.29382e-05 0.000229812 0.146734)
(1.82481e-05 0.00024612 0.148662)
(-1.82666e-05 0.000246118 0.148662)
(-5.29567e-05 0.000229808 0.146734)
(-7.75633e-05 0.000200926 0.142996)
(-0.000105281 0.000159731 0.137677)
(-0.000112221 0.000120745 0.131125)
(0.00221833 0.00256445 0.379681)
(0.00198523 0.00318119 0.39743)
(0.00155404 0.00375193 0.411783)
(0.00100362 0.00417611 0.421845)
(0.000346393 0.00440613 0.427028)
(-0.000346449 0.00440613 0.427028)
(-0.00100368 0.0041761 0.421845)
(-0.00155409 0.00375191 0.411783)
(-0.00198529 0.00318116 0.39743)
(-0.00221838 0.00256441 0.379681)
(0.00603035 0.00699791 0.608792)
(0.0053547 0.0085762 0.63551)
(0.00419332 0.0100122 0.656987)
(0.0026925 0.0110789 0.67199)
(0.000927887 0.0116533 0.679701)
(-0.000927981 0.0116533 0.679701)
(-0.00269259 0.0110789 0.67199)
(-0.00419342 0.0100122 0.656987)
(-0.00535479 0.00857615 0.63551)
(-0.00603043 0.00699785 0.608792)
(0.0110211 0.0127964 0.816322)
(0.00971558 0.0155002 0.849615)
(0.00758335 0.017934 0.876159)
(0.00484742 0.0197318 0.894619)
(0.00166744 0.0206945 0.904079)
(-0.00166757 0.0206945 0.904079)
(-0.00484755 0.0197317 0.894619)
(-0.00758347 0.017934 0.876159)
(-0.0097157 0.0155002 0.849615)
(-0.0110212 0.0127963 0.816322)
(0.0163917 0.0190057 1.0011)
(0.0143373 0.0227359 1.03859)
(0.0111363 0.0260591 1.06818)
(0.00708667 0.0284961 1.08865)
(0.00243265 0.0297943 1.09911)
(-0.00243282 0.0297943 1.09911)
(-0.00708683 0.0284961 1.08865)
(-0.0111364 0.0260591 1.06818)
(-0.0143375 0.0227359 1.03859)
(-0.0163919 0.0190056 1.0011)
(0.021457 0.0248123 1.16281)
(0.0186094 0.0292797 1.2023)
(0.014371 0.0332135 1.23312)
(0.00910239 0.0360751 1.2543)
(0.00311753 0.0375912 1.26508)
(-0.00311774 0.0375912 1.26508)
(-0.0091026 0.0360751 1.2543)
(-0.0143712 0.0332135 1.23312)
(-0.0186096 0.0292796 1.2023)
(-0.0214572 0.0248122 1.16281)
(0.0256889 0.0295975 1.30186)
(0.0220773 0.0343993 1.34142)
(0.0169402 0.0385695 1.37194)
(0.0106772 0.0415771 1.39278)
(0.00364808 0.0431615 1.40334)
(-0.00364832 0.0431615 1.40334)
(-0.0106774 0.0415771 1.39278)
(-0.0169404 0.0385694 1.37194)
(-0.0220776 0.0343992 1.34142)
(-0.0256891 0.0295975 1.30186)
(0.028719 0.0329299 1.41914)
(0.0244443 0.0376184 1.45728)
(0.0186283 0.0416221 1.48634)
(0.0116809 0.0444829 1.50606)
(0.00398077 0.0459812 1.516)
(-0.00398105 0.0459812 1.516)
(-0.0116812 0.0444829 1.50606)
(-0.0186286 0.041622 1.48634)
(-0.0244445 0.0376183 1.45728)
(-0.0287192 0.0329298 1.41914)
(0.0303698 0.0345857 1.51584)
(0.02559 0.0387344 1.55162)
(0.0193524 0.0421773 1.57854)
(0.0120648 0.0446146 1.59662)
(0.00409955 0.0458825 1.60568)
(-0.00409986 0.0458825 1.60568)
(-0.0120651 0.0446146 1.59662)
(-0.0193527 0.0421773 1.57854)
(-0.0255902 0.0387344 1.55162)
(-0.03037 0.0345857 1.51584)
(0.0306592 0.0348464 1.59315)
(0.02553 0.0377182 1.62679)
(0.019097 0.0402112 1.65116)
(0.01182 0.0419533 1.66728)
(0.00400196 0.0428512 1.67529)
(-0.00400228 0.0428512 1.67529)
(-0.0118204 0.0419533 1.66728)
(-0.0190973 0.0402112 1.65116)
(-0.0255302 0.0377182 1.62679)
(-0.0306594 0.0348464 1.59315)
(7.00138e-05 9.54646e-05 0.128681)
(4.807e-05 0.000121295 0.135062)
(2.85441e-05 0.00013594 0.14021)
(1.69575e-05 0.000142785 0.143822)
(5.41959e-06 0.000145909 0.145683)
(-5.43397e-06 0.000145908 0.145683)
(-1.69718e-05 0.000142782 0.143822)
(-2.85583e-05 0.000135935 0.14021)
(-4.80837e-05 0.000121287 0.135062)
(-7.00262e-05 9.54543e-05 0.128681)
(0.000872242 0.00104607 0.372649)
(0.000745149 0.00129819 0.390018)
(0.000566916 0.00150905 0.404004)
(0.000360743 0.00165914 0.413799)
(0.000123612 0.00173901 0.418841)
(-0.000123656 0.001739 0.418841)
(-0.000360786 0.00165913 0.413799)
(-0.000566958 0.00150903 0.404004)
(-0.00074519 0.00129816 0.390018)
(-0.000872278 0.00104605 0.372649)
(0.00239202 0.00282373 0.59856)
(0.00208164 0.00347254 0.624922)
(0.00161126 0.00403663 0.646055)
(0.00102866 0.00444865 0.660814)
(0.000353557 0.00466897 0.668398)
(-0.00035363 0.00466897 0.668398)
(-0.00102873 0.00444864 0.660814)
(-0.00161133 0.00403661 0.646055)
(-0.00208171 0.00347251 0.624922)
(-0.00239208 0.00282369 0.59856)
(0.00446256 0.00523303 0.804971)
(0.00389618 0.00637429 0.838191)
(0.00302651 0.00737715 0.864649)
(0.00193102 0.00811313 0.883059)
(0.00066375 0.00850647 0.892498)
(-0.000663851 0.00850647 0.892498)
(-0.00193112 0.00811311 0.883059)
(-0.00302661 0.00737712 0.864648)
(-0.00389627 0.00637425 0.838191)
(-0.00446264 0.00523298 0.804971)
(0.00680234 0.00793863 0.990883)
(0.00592549 0.00956454 1.0288)
(0.00459712 0.0109935 1.05874)
(0.00292618 0.01204 1.07949)
(0.00100476 0.0125978 1.09009)
(-0.00100489 0.0125978 1.09009)
(-0.00292631 0.01204 1.07949)
(-0.00459724 0.0109934 1.05874)
(-0.0059256 0.0095645 1.0288)
(-0.00680244 0.00793857 0.990883)
(0.0091305 0.010608 1.15581)
(0.00791263 0.0126204 1.19634)
(0.00611642 0.0143787 1.22804)
(0.00387995 0.0156598 1.24988)
(0.00133006 0.0163399 1.26102)
(-0.00133021 0.0163399 1.26102)
(-0.0038801 0.0156598 1.24988)
(-0.00611657 0.0143787 1.22804)
(-0.00791276 0.0126203 1.19633)
(-0.00913062 0.010608 1.15581)
(0.0111952 0.0129457 1.29974)
(0.00963397 0.015179 1.34099)
(0.00740915 0.0171107 1.37293)
(0.00468059 0.0185083 1.39482)
(0.00160123 0.0192466 1.40593)
(-0.00160141 0.0192466 1.40593)
(-0.00468077 0.0185083 1.39482)
(-0.00740932 0.0171107 1.37293)
(-0.00963413 0.015179 1.34099)
(-0.0111953 0.0129457 1.29974)
(0.0127919 0.0147108 1.42306)
(0.0109172 0.0169605 1.46348)
(0.00834537 0.0188787 1.49445)
(0.00524727 0.0202549 1.51554)
(0.00179082 0.0209777 1.5262)
(-0.00179102 0.0209777 1.5262)
(-0.00524747 0.0202548 1.51554)
(-0.00834556 0.0188787 1.49445)
(-0.0109174 0.0169604 1.46348)
(-0.012792 0.0147107 1.42306)
(0.0137939 0.0157437 1.52637)
(0.0116642 0.0177987 1.56493)
(0.00885208 0.0195057 1.59414)
(0.0055347 0.0207185 1.61385)
(0.00188349 0.0213511 1.62375)
(-0.00188372 0.0213511 1.62375)
(-0.00553492 0.0207185 1.61385)
(-0.00885228 0.0195057 1.59414)
(-0.0116644 0.0177987 1.56493)
(-0.013794 0.0157437 1.52637)
(0.0141671 0.0161304 1.61028)
(0.0118406 0.0176222 1.64716)
(0.00889017 0.0189041 1.67407)
(0.00551863 0.0198025 1.69198)
(0.00187122 0.0202664 1.7009)
(-0.00187145 0.0202664 1.7009)
(-0.00551886 0.0198025 1.69197)
(-0.00889038 0.0189041 1.67407)
(-0.0118408 0.0176221 1.64716)
(-0.0141672 0.0161304 1.61028)
(8.09814e-06 9.6253e-06 0.127453)
(5.37601e-06 1.36835e-05 0.133781)
(2.6572e-06 1.64976e-05 0.138882)
(1.99956e-06 1.80804e-05 0.142462)
(6.50617e-07 1.89863e-05 0.144307)
(-6.61524e-07 1.89855e-05 0.144307)
(-2.01033e-06 1.80778e-05 0.142462)
(-2.66777e-06 1.64934e-05 0.138882)
(-5.38616e-06 1.36775e-05 0.133781)
(-8.10703e-06 9.61781e-06 0.127453)
(0.000279302 0.000325944 0.369194)
(0.000243783 0.000407636 0.386429)
(0.000188406 0.000479327 0.400301)
(0.000121411 0.000532146 0.410018)
(4.18219e-05 0.000560785 0.41502)
(-4.18547e-05 0.000560782 0.41502)
(-0.000121443 0.000532139 0.410018)
(-0.000188437 0.000479316 0.400301)
(-0.000243813 0.00040762 0.386429)
(-0.000279328 0.000325924 0.369194)
(0.000840268 0.000977978 0.593422)
(0.00074045 0.00121026 0.61964)
(0.000578754 0.00141735 0.640656)
(0.000372119 0.00157167 0.655339)
(0.00012831 0.00165508 0.662885)
(-0.000128364 0.00165508 0.662885)
(-0.000372173 0.00157166 0.655339)
(-0.000578806 0.00141733 0.640656)
(-0.000740499 0.00121024 0.61964)
(-0.000840311 0.000977948 0.593422)
(0.00164888 0.00191515 0.798957)
(0.00145385 0.00234715 0.832125)
(0.00113836 0.00273346 0.858551)
(0.000730425 0.0030214 0.876952)
(0.000251739 0.00317659 0.88639)
(-0.000251814 0.00317658 0.88639)
(-0.000730499 0.00302139 0.876952)
(-0.00113843 0.00273344 0.858551)
(-0.00145392 0.00234712 0.832125)
(-0.00164894 0.00191512 0.798957)
(0.00260545 0.00301799 0.984931)
(0.00229023 0.00365908 1.02298)
(0.00179008 0.0042309 1.05306)
(0.00114544 0.00465551 1.07393)
(0.000394311 0.00488355 1.0846)
(-0.000394406 0.00488355 1.0846)
(-0.00114553 0.0046555 1.07393)
(-0.00179017 0.00423087 1.05306)
(-0.00229031 0.00365905 1.02298)
(-0.00260552 0.00301795 0.98493)
(0.00359905 0.00415468 1.15085)
(0.00314698 0.00497514 1.19177)
(0.00245059 0.0057021 1.22384)
(0.00156263 0.0062388 1.24597)
(0.000537041 0.00652581 1.25726)
(-0.000537156 0.0065258 1.25726)
(-0.00156275 0.00623878 1.24597)
(-0.0024507 0.00570208 1.22384)
(-0.00314708 0.0049751 1.19177)
(-0.00359914 0.00415464 1.15085)
(0.00452075 0.00519703 1.2966)
(0.00392574 0.0061343 1.33855)
(0.00304159 0.00695641 1.3711)
(0.00193151 0.00755889 1.39345)
(0.00066246 0.00787946 1.40481)
(-0.000662593 0.00787945 1.40481)
(-0.00193164 0.00755888 1.39345)
(-0.00304172 0.00695638 1.3711)
(-0.00392586 0.00613427 1.33855)
(-0.00452085 0.00519699 1.2966)
(0.00527445 0.00603151 1.42237)
(0.00454321 0.00700067 1.46378)
(0.00349864 0.00783896 1.4956)
(0.00221116 0.00844766 1.51733)
(0.000756538 0.00876959 1.52833)
(-0.000756686 0.00876959 1.52833)
(-0.0022113 0.00844765 1.51733)
(-0.00349878 0.00783894 1.4956)
(-0.00454334 0.00700064 1.46378)
(-0.00527456 0.00603148 1.42237)
(0.00579382 0.00657619 1.52853)
(0.00494416 0.00748435 1.56835)
(0.0037788 0.00824907 1.59862)
(0.0023742 0.00879799 1.61911)
(0.00080987 0.00908597 1.62942)
(-0.000810031 0.00908597 1.62942)
(-0.00237436 0.00879798 1.61911)
(-0.00377894 0.00824906 1.59862)
(-0.0049443 0.00748433 1.56835)
(-0.00579394 0.00657616 1.52853)
(0.00605032 0.00685791 1.61542)
(0.00509725 0.00754203 1.65382)
(0.00385183 0.00812916 1.68196)
(0.00240149 0.0085434 1.70073)
(0.00081599 0.00875827 1.71009)
(-0.000816157 0.00875827 1.71009)
(-0.00240166 0.0085434 1.70073)
(-0.00385199 0.00812915 1.68196)
(-0.0050974 0.00754201 1.65382)
(-0.00605044 0.0068579 1.61542)
(6.43976e-06 1.03811e-05 0.127174)
(2.57142e-06 1.35469e-05 0.133481)
(3.2855e-07 1.44698e-05 0.138562)
(-9.34153e-08 1.44314e-05 0.142126)
(-1.16427e-07 1.42961e-05 0.143962)
(1.08316e-07 1.42955e-05 0.143962)
(8.54997e-08 1.44295e-05 0.142126)
(-3.36173e-07 1.44668e-05 0.138562)
(-2.57861e-06 1.35426e-05 0.133481)
(-6.44595e-06 1.03759e-05 0.127174)
(0.000105038 0.000128664 0.368256)
(8.61056e-05 0.000161026 0.385431)
(6.38351e-05 0.000186113 0.399245)
(4.01948e-05 0.00020348 0.408919)
(1.36823e-05 0.00021262 0.413898)
(-1.37065e-05 0.000212618 0.413898)
(-4.02184e-05 0.000203475 0.408919)
(-6.38579e-05 0.000186104 0.399245)
(-8.6127e-05 0.000161014 0.385431)
(-0.000105056 0.00012865 0.368256)
(0.000314339 0.000373725 0.591905)
(0.000269855 0.000463733 0.618049)
(0.000207487 0.000539828 0.638993)
(0.000132214 0.000595231 0.653624)
(4.53857e-05 0.000624861 0.661144)
(-4.54255e-05 0.000624859 0.661144)
(-0.000132253 0.000595224 0.653624)
(-0.000207525 0.000539816 0.638993)
(-0.00026989 0.000463716 0.618049)
(-0.000314369 0.000373703 0.591905)
(0.000623339 0.000732611 0.797095)
(0.00054243 0.000901594 0.830214)
(0.000421396 0.00104851 0.856591)
(0.000269296 0.00115685 0.874959)
(9.26345e-05 0.00121499 0.884381)
(-9.26893e-05 0.00121498 0.884381)
(-0.00026935 0.00115684 0.874959)
(-0.000421448 0.00104849 0.856591)
(-0.000542479 0.000901572 0.830214)
(-0.000623381 0.000732585 0.797095)
(0.0010004 0.00116758 0.983051)
(0.000873363 0.00142291 1.02112)
(0.000680131 0.00164692 1.05122)
(0.000434519 0.00181249 1.07209)
(0.000149478 0.00190127 1.08278)
(-0.000149547 0.00190127 1.08278)
(-0.000434587 0.00181248 1.07209)
(-0.000680196 0.00164691 1.05122)
(-0.000873424 0.00142288 1.02112)
(-0.00100045 0.00116755 0.98305)
(0.00140526 0.00163094 1.14932)
(0.00122474 0.00196447 1.19037)
(0.00095249 0.00225703 1.22254)
(0.000607273 0.00247268 1.24475)
(0.000208706 0.00258799 1.25609)
(-0.000208789 0.00258799 1.25609)
(-0.000607354 0.00247266 1.24475)
(-0.000952568 0.00225701 1.22254)
(-0.00122481 0.00196444 1.19037)
(-0.00140533 0.0016309 1.14932)
(0.00179419 0.0020712 1.29576)
(0.00155641 0.00246028 1.33796)
(0.00120608 0.00279943 1.37074)
(0.000766451 0.00304801 1.39325)
(0.000262984 0.00318038 1.40471)
(-0.000263079 0.00318038 1.40471)
(-0.000766544 0.003048 1.39325)
(-0.00120617 0.00279941 1.37074)
(-0.00155649 0.00246026 1.33796)
(-0.00179427 0.00207117 1.29576)
(0.00212529 0.00243869 1.42253)
(0.00183135 0.00284944 1.46433)
(0.00141181 0.00320349 1.49649)
(0.000893383 0.00346083 1.51847)
(0.000305869 0.00359709 1.5296)
(-0.000305975 0.00359708 1.5296)
(-0.000893487 0.00346082 1.51847)
(-0.00141191 0.00320347 1.49649)
(-0.00183144 0.00284942 1.46433)
(-0.00212537 0.00243866 1.42253)
(0.00236666 0.0026937 1.52989)
(0.00202224 0.00308682 1.57023)
(0.00154812 0.00341745 1.60095)
(0.000974163 0.00365507 1.62176)
(0.000332558 0.00377988 1.63224)
(-0.000332672 0.00377987 1.63224)
(-0.000974276 0.00365507 1.62176)
(-0.00154823 0.00341744 1.60095)
(-0.00202234 0.00308681 1.57023)
(-0.00236675 0.00269367 1.52989)
(0.00250128 0.00284177 1.61807)
(0.00211085 0.00314634 1.65713)
(0.00159829 0.00340648 1.6858)
(0.00099814 0.00359026 1.70495)
(0.000339429 0.00368569 1.71452)
(-0.000339549 0.00368569 1.71452)
(-0.000998258 0.00359025 1.70495)
(-0.0015984 0.00340647 1.6858)
(-0.00211095 0.00314633 1.65713)
(-0.00250138 0.00284175 1.61807)
(-5.85517e-07 -2.51931e-07 0.127038)
(-1.26823e-06 5.17897e-08 0.133339)
(-1.38473e-06 -8.08624e-08 0.138413)
(-9.11039e-07 -3.18609e-07 0.141974)
(-3.31521e-07 -4.56695e-07 0.143808)
(3.25701e-07 -4.57138e-07 0.143808)
(9.05381e-07 -3.19932e-07 0.141974)
(1.37939e-06 -8.29963e-08 0.138413)
(1.26327e-06 4.88752e-08 0.133339)
(5.81389e-07 -2.55407e-07 0.127038)
(2.84168e-05 3.40897e-05 0.367825)
(2.33933e-05 4.34447e-05 0.384979)
(1.74493e-05 5.0913e-05 0.398774)
(1.11016e-05 5.62507e-05 0.408435)
(3.79022e-06 5.91139e-05 0.413408)
(-3.80753e-06 5.91127e-05 0.413408)
(-1.11184e-05 5.62471e-05 0.408435)
(-1.74652e-05 5.09072e-05 0.398774)
(-2.34082e-05 4.34368e-05 0.384979)
(-2.84292e-05 3.40802e-05 0.367825)
(9.82318e-05 0.000115281 0.591208)
(8.50449e-05 0.000144671 0.617323)
(6.59145e-05 0.000170022 0.638241)
(4.22797e-05 0.000188855 0.652856)
(1.45532e-05 0.000199031 0.660366)
(-1.45817e-05 0.00019903 0.660366)
(-4.23074e-05 0.00018885 0.652855)
(-6.59408e-05 0.000170013 0.638241)
(-8.50695e-05 0.000144659 0.617323)
(-9.82529e-05 0.000115267 0.591208)
(0.000207962 0.000242081 0.796213)
(0.000182449 0.000300641 0.829309)
(0.000142787 0.000352319 0.855667)
(9.17494e-05 0.000391024 0.874023)
(3.16374e-05 0.000411959 0.883439)
(-3.16764e-05 0.000411957 0.883439)
(-9.17875e-05 0.000391017 0.874023)
(-0.000142823 0.000352308 0.855667)
(-0.000182483 0.000300626 0.829309)
(-0.000207992 0.000242063 0.796213)
(0.000347717 0.000402591 0.982105)
(0.000305992 0.000494618 1.02018)
(0.000239981 0.000576387 1.05027)
(0.000154098 0.000637634 1.07115)
(5.31346e-05 0.000670709 1.08184)
(-5.31836e-05 0.000670707 1.08184)
(-0.000154146 0.000637626 1.07115)
(-0.000240027 0.000576374 1.05027)
(-0.000306035 0.000494601 1.02018)
(-0.000347755 0.000402571 0.982105)
(0.000503158 0.000579786 1.14845)
(0.000442044 0.000703629 1.18954)
(0.000346181 0.000813538 1.22175)
(0.000221804 0.000895554 1.24399)
(7.64055e-05 0.000939705 1.25535)
(-7.64638e-05 0.000939703 1.25535)
(-0.000221861 0.000895546 1.24399)
(-0.000346236 0.000813525 1.22175)
(-0.000442095 0.000703611 1.18954)
(-0.000503203 0.000579765 1.14845)
(0.000657541 0.000753945 1.29512)
(0.000575042 0.000901962 1.33741)
(0.000448692 0.00103247 1.37026)
(0.000286524 0.00112923 1.39285)
(9.85369e-05 0.00118109 1.40434)
(-9.86038e-05 0.00118109 1.40434)
(-0.00028659 0.00112923 1.39285)
(-0.000448754 0.00103246 1.37026)
(-0.0005751 0.000901944 1.33741)
(-0.000657593 0.000753925 1.29512)
(0.000793929 0.000905017 1.42224)
(0.000689754 0.00106461 1.46418)
(0.000535346 0.00120373 1.49648)
(0.000340356 0.00130591 1.51855)
(0.000116786 0.00136033 1.52974)
(-0.00011686 0.00136033 1.52974)
(-0.000340429 0.0013059 1.51855)
(-0.000535416 0.00120371 1.49648)
(-0.000689819 0.00106459 1.46418)
(-0.000793989 0.000904998 1.42224)
(0.000898751 0.00101636 1.53005)
(0.000774096 0.0011722 1.5706)
(0.000596387 0.00130455 1.60149)
(0.000376914 0.00140047 1.62244)
(0.000128931 0.00145109 1.63299)
(-0.000129012 0.00145108 1.63299)
(-0.000376993 0.00140046 1.62244)
(-0.000596463 0.00130454 1.60149)
(-0.000774168 0.00117219 1.5706)
(-0.000898816 0.00101635 1.53005)
(0.000963605 0.00108941 1.61874)
(0.000818735 0.00121344 1.65806)
(0.000623445 0.00131909 1.68695)
(0.000390824 0.00139411 1.70626)
(0.000133136 0.0014332 1.71591)
(-0.000133222 0.0014332 1.71591)
(-0.000390907 0.00139411 1.70626)
(-0.000623526 0.00131908 1.68695)
(-0.000818811 0.00121343 1.65806)
(-0.000963675 0.0010894 1.61874)
(2.41253e-07 8.94259e-07 0.127018)
(-4.55152e-07 1.26049e-06 0.133317)
(-6.81757e-07 1.1872e-06 0.138389)
(-5.19697e-07 9.93506e-07 0.141947)
(-1.98264e-07 8.62045e-07 0.143781)
(1.94207e-07 8.61752e-07 0.143781)
(5.15775e-07 9.92569e-07 0.141947)
(6.78145e-07 1.18574e-06 0.138389)
(4.51899e-07 1.25856e-06 0.133317)
(-2.43939e-07 8.92046e-07 0.127018)
(9.57561e-06 1.25155e-05 0.36773)
(6.92007e-06 1.60234e-05 0.384876)
(4.6517e-06 1.83055e-05 0.398663)
(2.77505e-06 1.9735e-05 0.408317)
(9.12638e-07 2.04491e-05 0.413286)
(-9.24682e-07 2.04484e-05 0.413286)