/*--------------------------------*- C++ -*----------------------------------*\
| =========                 |                                                 |
| \\      /  F ield         | OpenFOAM: The Open Source CFD Toolbox           |
|  \\    /   O peration     | Version:  2106                                  |
|   \\  /    A nd           | Website:  www.openfoam.com                      |
|    \\/     M anipulation  |                                                 |
\*---------------------------------------------------------------------------*/
FoamFile
{
    version     2.0;
    format      ascii;
    arch        "LSB;label=32;scalar=64";
    class       surfaceScalarField;
    location    "0.18";
    object      phi;
}
// * * * * * * * * * * * * * * * * * * * * * * * * * * * * * * * * * * * * * //

dimensions      [0 3 -1 0 0 0 0];

oriented        oriented;

internalField   nonuniform List<scalar> 
29100
(
0.00117897
0.150181
0.0811358
-2.67454e-10
0.00145158
0.155032
0.0891655
0.00124548
0.158431
0.0958737
0.000709296
0.160693
0.100675
-2.60706e-09
0.161828
0.103176
-0.000709302
0.161828
0.103176
-0.00124548
0.160693
0.100675
-0.00145158
0.158431
0.0958737
-0.00117898
0.155032
0.0891655
0.150181
0.0811358
-6.13894e-09
0.00235523
0.207348
0.156141
-5.81357e-10
0.00327196
0.211826
0.169739
0.00291791
0.214811
0.180858
0.00168784
0.216665
0.188722
-7.13968e-09
0.217571
0.192786
-0.00168785
0.217571
0.192786
-0.00291792
0.216665
0.188722
-0.00327198
0.214811
0.180858
-0.00235525
0.211826
0.169739
0.207348
0.156141
-1.50002e-08
0.00299396
0.217493
0.185693
-7.87306e-10
0.00423367
0.220201
0.200816
0.00379913
0.221928
0.212989
0.00219992
0.222839
0.221521
-1.10833e-08
0.223253
0.225906
-0.00219994
0.223253
0.225906
-0.00379915
0.222839
0.221521
-0.0042337
0.221928
0.212989
-0.00299398
0.220201
0.200816
0.217493
0.185693
-2.24807e-08
0.00340253
0.203176
0.192914
-1.0572e-09
0.00474286
0.204106
0.208164
0.00424548
0.204601
0.220282
0.00245339
0.204645
0.228713
-1.50027e-08
0.204615
0.233027
-0.00245342
0.204615
0.233027
-0.00424551
0.204645
0.228713
-0.00474289
0.204601
0.220282
-0.00340256
0.204106
0.208164
0.203176
0.192914
-2.88456e-08
0.00360439
0.177277
0.187463
-1.36696e-09
0.00495218
0.176841
0.202307
0.00441844
0.176402
0.213976
0.00254912
0.175832
0.222042
-1.93407e-08
0.175491
0.226155
-0.00254916
0.175491
0.226155
-0.00441848
0.175832
0.222042
-0.00495222
0.176402
0.213976
-0.00360443
0.176841
0.202307
0.177277
0.187463
-3.45858e-08
0.00365531
0.147246
0.174713
-1.7429e-09
0.00496784
0.145922
0.188976
0.00442035
0.144891
0.200089
0.00254775
0.143971
0.207725
-2.45153e-08
0.143461
0.211607
-0.0025478
0.143461
0.211607
-0.0044204
0.143971
0.207725
-0.00496789
0.144891
0.200089
-0.00365535
0.145922
0.188976
0.147246
0.174713
-3.98868e-08
0.00362434
0.117271
0.157856
-2.25827e-09
0.00488614
0.115481
0.171529
0.00433809
0.114152
0.182104
0.00249917
0.113102
0.189331
-3.08597e-08
0.112541
0.192995
-0.00249924
0.112541
0.192995
-0.00433815
0.113102
0.189331
-0.0048862
0.114152
0.182104
-0.00362438
0.115481
0.171529
0.117271
0.157856
-4.49323e-08
0.0035477
0.089601
0.138796
-2.87738e-09
0.00477191
0.0876482
0.151938
0.00423438
0.0862536
0.162039
0.00243985
0.0852439
0.168908
-3.82569e-08
0.0847232
0.17238
-0.00243993
0.0847231
0.17238
-0.00423445
0.0852439
0.168908
-0.00477197
0.0862536
0.162039
-0.00354776
0.0876482
0.151938
0.089601
0.138796
-4.97906e-08
0.00347056
0.0653192
0.118653
-3.56871e-09
0.00469213
0.0633952
0.131341
0.00416472
0.0621287
0.141042
0.00239877
0.0612884
0.147608
-4.64302e-08
0.060871
0.15092
-0.00239886
0.060871
0.15092
-0.0041648
0.0612884
0.147608
-0.0046922
0.0621287
0.141042
-0.00347062
0.0633952
0.131341
0.0653191
0.118653
-5.43419e-08
0.00364717
0.0980857
-4.53856e-09
0.0445966
0.00482634
0.110394
0.0431117
0.00422798
0.119759
0.042144
0.00241531
0.126072
0.0415478
-5.4627e-08
0.129248
0.0412541
-0.00241541
0.129248
0.0412541
-0.00422807
0.126072
0.0415478
-0.00482642
0.119759
0.0421439
-0.00364724
0.110394
0.0431117
0.0980857
-5.78772e-08
0.0445966
-0.000240871
0.0358934
0.0454833
-4.99557e-10
-0.000242816
0.0390007
0.0501667
-0.000171374
0.0416294
0.0541729
-8.55499e-05
0.0435074
0.057082
-3.82706e-09
0.0444787
0.0586116
8.55426e-05
0.0444787
0.0586116
0.000171366
0.0435074
0.057082
0.000242807
0.0416294
0.0541729
0.000240863
0.0390007
0.0501667
0.0358934
0.0454833
-9.15272e-09
4.98568e-05
0.0785111
0.113474
-1.21662e-09
0.000230525
0.0840708
0.124488
0.000280731
0.0886968
0.133741
0.00018947
0.0919322
0.140389
-1.09954e-08
0.0935926
0.143862
-0.000189492
0.0935926
0.143862
-0.000280754
0.0919322
0.140389
-0.000230548
0.0886968
0.133741
-4.98801e-05
0.0840708
0.124488
0.0785111
0.113474
-2.37493e-08
0.000571568
0.107976
0.155656
-1.70797e-09
0.000967555
0.114248
0.170243
0.000948879
0.119392
0.182312
0.000580633
0.122914
0.190908
-1.7651e-08
0.124705
0.195374
-0.000580668
0.124705
0.195374
-0.000948916
0.122914
0.190908
-0.000967591
0.119392
0.182312
-0.000571604
0.114248
0.170243
0.107976
0.155656
-3.64313e-08
0.00114904
0.12237
0.177372
-2.15947e-09
0.00174862
0.128126
0.193686
0.00164497
0.132779
0.206999
0.000982306
0.135888
0.216402
-2.45268e-08
0.13745
0.221264
-0.000982355
0.13745
0.221264
-0.00164502
0.135888
0.216402
-0.00174867
0.132779
0.206999
-0.00114908
0.128126
0.193686
0.12237
0.177372
-4.71211e-08
0.00169957
0.123801
0.184333
-2.64821e-09
0.00246907
0.128408
0.201255
0.00227789
0.132063
0.214884
0.00134419
0.13443
0.224434
-3.1995e-08
0.135601
0.229348
-0.00134425
0.135601
0.229348
-0.00227796
0.13443
0.224434
-0.00246913
0.132063
0.214884
-0.00169962
0.128408
0.201255
0.123801
0.184333
-5.62892e-08
0.00218097
0.115586
0.180747
-3.2262e-09
0.00308566
0.118857
0.197623
0.00281402
0.121373
0.21105
0.00164911
0.122935
0.220385
-4.04627e-08
0.12369
0.225167
-0.00164919
0.12369
0.225167
-0.0028141
0.122935
0.220385
-0.00308573
0.121373
0.21105
-0.00218104
0.118857
0.197623
0.115586
0.180747
-6.40683e-08
0.0025734
0.101115
0.169754
-4.07488e-09
0.00358697
0.103135
0.186237
0.00324986
0.104606
0.199208
0.00189719
0.10546
0.208158
-5.02438e-08
0.105858
0.212723
-0.00189729
0.105858
0.212723
-0.00324995
0.10546
0.208158
-0.00358705
0.104606
0.199208
-0.00257348
0.103135
0.186237
0.101115
0.169753
-7.05971e-08
0.0028745
0.0833429
0.153694
-5.35691e-09
0.0039878
0.0843192
0.16964
0.00360459
0.0849604
0.182067
0.00210075
0.0852892
0.190583
-6.08299e-08
0.0854313
0.194908
-0.00210087
0.0854313
0.194908
-0.0036047
0.0852892
0.190583
-0.0039879
0.0849604
0.182067
-0.00287458
0.0843192
0.16964
0.0833429
0.153694
-7.57581e-08
0.00312148
0.0645848
0.13429
-7.13903e-09
0.00434255
0.0647601
0.149679
0.00392207
0.0648528
0.16157
0.00228249
0.0648705
0.169667
-7.1361e-08
0.0648701
0.173764
-0.00228263
0.0648701
0.173764
-0.0039222
0.0648705
0.169667
-0.00434266
0.0648528
0.16157
-0.00312157
0.0647601
0.149679
0.0645848
0.13429
-7.89114e-08
0.00347655
0.112781
-9.1653e-09
0.0464126
0.00479022
0.127667
0.046173
0.0042883
0.139077
0.0460363
0.00248
0.146801
0.0459495
-7.96659e-08
0.150696
0.0459021
-0.00248016
0.150696
0.0459021
-0.00428844
0.146801
0.0459495
-0.00479033
0.139077
0.0460363
-0.00347664
0.127667
0.046173
0.112781
-7.89068e-08
0.0464126
3.92828e-05
0.00933168
0.0361123
-4.31423e-10
3.51189e-05
0.0102962
0.0398747
2.88193e-05
0.0111168
0.0430623
1.57638e-05
0.0117258
0.0453692
-3.41364e-09
0.0120467
0.0465807
-1.57708e-05
0.0120467
0.0465807
-2.88266e-05
0.0117258
0.0453692
-3.51269e-05
0.0111168
0.0430623
-3.92913e-05
0.0102962
0.0398747
0.00933168
0.0361123
-9.02301e-09
0.000266411
0.0280324
0.0945064
-9.44097e-10
0.000359202
0.0305062
0.104185
0.000319162
0.0325785
0.112319
0.000185609
0.0340705
0.118178
-1.04442e-08
0.0348495
0.121245
-0.00018563
0.0348495
0.121245
-0.000319184
0.0340705
0.118178
-0.000359225
0.0325786
0.112319
-0.000266434
0.0305062
0.104185
0.0280324
0.0945064
-2.38408e-08
0.000556927
0.0468419
0.13629
-1.49517e-09
0.000785727
0.0503984
0.150122
0.00070895
0.0533331
0.161634
0.000414598
0.055395
0.169878
-1.7252e-08
0.0564611
0.174177
-0.000414633
0.0564611
0.174177
-0.000708985
0.055395
0.169878
-0.000785764
0.0533331
0.161634
-0.000556963
0.0503984
0.150122
0.046842
0.13629
-3.66968e-08
0.000881123
0.0604991
0.162833
-2.1194e-09
0.00125788
0.0644328
0.179275
0.00114473
0.0676325
0.192813
0.000670843
0.0698304
0.20244
-2.42846e-08
0.0709547
0.207442
-0.000670892
0.0709547
0.207442
-0.00114478
0.0698304
0.20244
-0.00125793
0.0676325
0.192813
-0.000881171
0.0644328
0.179275
0.0604991
0.162833
-4.75513e-08
0.00121461
0.0673869
0.17623
-2.88103e-09
0.00173036
0.0710938
0.194078
0.00157854
0.074061
0.208607
0.000925196
0.076052
0.218865
-3.17788e-08
0.0770578
0.22417
-0.000925259
0.0770578
0.22417
-0.0015786
0.076052
0.218865
-0.00173043
0.074061
0.208607
-0.00121467
0.0710938
0.194078
0.0673869
0.17623
-5.65942e-08
0.00153893
0.0678059
0.178789
-3.78563e-09
0.00217653
0.0709014
0.197178
0.00198415
0.0733271
0.211977
0.00116207
0.0749124
0.222346
-3.99801e-08
0.0757017
0.227685
-0.00116215
0.0757017
0.227685
-0.00198423
0.0749124
0.222346
-0.00217661
0.0733271
0.211977
-0.001539
0.0709014
0.197178
0.0678059
0.178789
-6.38056e-08
0.0018342
0.0629927
0.172733
-5.01192e-09
0.00257719
0.0653044
0.191091
0.00234663
0.0670625
0.205703
0.00137344
0.0681776
0.215866
-4.90097e-08
0.0687238
0.221075
-0.00137354
0.0687238
0.221075
-0.00234672
0.0681776
0.215866
-0.00257728
0.0670625
0.205703
-0.00183427
0.0653044
0.191091
0.0629927
0.172733
-6.91993e-08
0.00208783
0.0545355
0.160063
-6.7674e-09
0.00292743
0.0560457
0.17806
0.00266474
0.0571541
0.192238
0.00155912
0.0578369
0.202029
-5.819e-08
0.0581664
0.207025
-0.00155923
0.0581664
0.207025
-0.00266485
0.057837
0.202029
-0.00292753
0.0571542
0.192238
-0.00208791
0.0560457
0.178059
0.0545355
0.160063
-7.24083e-08
0.00231372
0.0440146
0.142497
-9.04422e-09
0.00324804
0.0448089
0.159981
0.00295396
0.0453884
0.17363
0.00172643
0.0457418
0.182989
-6.654e-08
0.0459117
0.187745
-0.00172656
0.0459117
0.187745
-0.00295408
0.0457418
0.182989
-0.00324814
0.0453884
0.17363
-0.0023138
0.0448089
0.159981
0.0440146
0.142497
-7.28196e-08
0.00258612
0.121445
-1.13737e-08
0.0327652
0.00359745
0.138407
0.0330578
0.0032497
0.151516
0.033297
0.0018903
0.160446
0.0334562
-7.1856e-08
0.164966
0.0335329
-0.00189044
0.164966
0.0335329
-0.00324982
0.160446
0.0334562
-0.00359755
0.151516
0.033297
-0.0025862
0.138407
0.0330578
0.121445
-6.91796e-08
0.0327652
-3.11563e-05
0.0035977
0.0325458
-3.87901e-10
-4.46073e-05
0.00396057
0.0359276
-3.65453e-05
0.00426964
0.0387846
-2.03376e-05
0.00449932
0.0408537
-2.80379e-09
0.0046195
0.0419408
2.03317e-05
0.0046195
0.0419408
3.65391e-05
0.00449932
0.0408537
4.46005e-05
0.00426964
0.0387846
3.1149e-05
0.00396057
0.0359276
0.0035977
0.0325458
-7.83211e-09
6.41118e-07
0.0109836
0.0871198
-8.34699e-10
2.92098e-06
0.012022
0.0961214
6.63784e-06
0.0129053
0.10368
6.20137e-06
0.0135468
0.109131
-8.67922e-09
0.0138831
0.111987
-6.21909e-06
0.0138831
0.111987
-6.6567e-06
0.0135468
0.109131
-2.94039e-06
0.0129053
0.10368
-6.61155e-07
0.012022
0.0961214
0.0109836
0.0871198
-2.07508e-08
9.25286e-05
0.0192732
0.127908
-1.35903e-09
0.000139846
0.0209524
0.141144
0.000134561
0.0223683
0.152177
8.21945e-05
0.023381
0.160096
-1.45428e-08
0.0239089
0.164234
-8.22238e-05
0.0239089
0.164234
-0.000134591
0.023381
0.160096
-0.000139877
0.0223684
0.152177
-9.25598e-05
0.0209524
0.141144
0.0192732
0.127908
-3.18659e-08
0.00023084
0.0263343
0.155541
-1.99117e-09
0.000342673
0.0284092
0.171706
0.000322478
0.0301384
0.185063
0.000193257
0.031355
0.194596
-2.04834e-08
0.0319845
0.199559
-0.000193298
0.0319845
0.199559
-0.000322519
0.031355
0.194596
-0.000342715
0.0301384
0.185063
-0.000230881
0.0284092
0.171706
0.0263343
0.155541
-4.11498e-08
0.000400001
0.0309361
0.171228
-2.78959e-09
0.000584768
0.033105
0.189198
0.000545437
0.0348852
0.2039
0.000324441
0.0361157
0.214326
-2.66793e-08
0.0367466
0.219733
-0.000324494
0.0367466
0.219733
-0.00054549
0.0361157
0.214326
-0.00058482
0.0348852
0.2039
-0.00040005
0.033105
0.189198
0.0309361
0.171228
-4.8705e-08
0.000585377
0.03265
0.17649
-3.74956e-09
0.00084458
0.0346535
0.19537
0.000783016
0.036265
0.210658
0.000463736
0.0373574
0.221424
-3.32439e-08
0.0379117
0.226984
-0.000463802
0.0379117
0.226984
-0.00078308
0.0373574
0.221424
-0.000844641
0.0362651
0.210658
-0.000585433
0.0346535
0.19537
0.03265
0.17649
-5.44544e-08
0.000772221
0.031629
0.172981
-5.01968e-09
0.00110417
0.0332918
0.192121
0.00101966
0.0345945
0.207459
0.00060228
0.0354593
0.218182
-4.01703e-08
0.0358933
0.223696
-0.000602359
0.0358933
0.223696
-0.00101974
0.0354593
0.218182
-0.00110424
0.0345945
0.207458
-0.000772282
0.0332918
0.192121
0.031629
0.172981
-5.83789e-08
0.000950215
0.0283882
0.162354
-6.77569e-09
0.00135411
0.0296219
0.181326
0.00124776
0.030561
0.196378
0.000735691
0.0311728
0.206827
-4.68249e-08
0.0314769
0.212177
-0.000735783
0.0314769
0.212177
-0.00124785
0.0311729
0.206827
-0.00135419
0.030561
0.196378
-0.000950279
0.0296219
0.181325
0.0283882
0.162354
-6.00607e-08
0.00112455
0.0236156
0.146145
-8.95142e-09
0.00160056
0.0244106
0.164717
0.00147032
0.0250071
0.179314
0.00086469
0.0253927
0.189375
-5.23715e-08
0.0255836
0.194503
-0.000864792
0.0255836
0.194503
-0.00147041
0.0253927
0.189375
-0.00160064
0.0250072
0.179314
-0.00112462
0.0244106
0.164717
0.0236156
0.146145
-5.9085e-08
0.00132289
0.125715
-1.10344e-08
0.0180223
0.00186575
0.143828
0.0184468
0.00170154
0.157908
0.0187801
0.000995467
0.167542
0.0190032
-5.5095e-08
0.172431
0.0191137
-0.000995573
0.172431
0.0191137
-0.00170163
0.167542
0.0190032
-0.00186583
0.157908
0.0187801
-0.00132295
0.143828
0.0184468
0.125715
-5.44798e-08
0.0180223
2.84261e-06
0.00104543
0.0314975
-3.07339e-10
6.33409e-07
0.00116297
0.0347668
4.24295e-07
0.00126635
0.0375185
1.78507e-07
0.00134534
0.0395086
-2.32328e-09
0.00138759
0.0405534
-1.83272e-07
0.00138759
0.0405534
-4.29245e-07
0.00134534
0.0395086
-6.38801e-07
0.00126635
0.0375185
-2.84839e-06
0.00116297
0.0347668
0.00104543
0.0314975
-6.1696e-09
2.60975e-05
0.00375891
0.0843802
-7.41917e-10
3.23011e-05
0.00414837
0.0931298
2.8822e-05
0.00448518
0.100464
1.67919e-05
0.00473521
0.105753
-7.07067e-09
0.00486777
0.108524
-1.68062e-05
0.00486777
0.108524
-2.88369e-05
0.00473521
0.105753
-3.23166e-05
0.00448518
0.100464
-2.61133e-05
0.00414838
0.0931298
0.00375891
0.0843802
-1.63682e-08
6.85618e-05
0.00720848
0.12439
-1.21606e-09
9.50926e-05
0.00790042
0.137366
8.65461e-05
0.00849177
0.148179
5.09653e-05
0.0089222
0.155944
-1.16896e-08
0.00914886
0.160004
-5.09888e-05
0.00914886
0.160004
-8.657e-05
0.0089222
0.155944
-9.51171e-05
0.00849178
0.148179
-6.85865e-05
0.00790043
0.137366
0.00720848
0.12439
-2.52381e-08
0.000129864
0.0104872
0.152133
-1.77924e-09
0.000186106
0.0114117
0.168139
0.000171393
0.0121925
0.181377
0.000101294
0.0127513
0.190837
-1.62778e-08
0.0130433
0.195766
-0.000101327
0.0130433
0.195766
-0.000171426
0.0127513
0.190837
-0.000186139
0.0121925
0.181377
-0.000129896
0.0114117
0.168139
0.0104872
0.152133
-3.26226e-08
0.000207172
0.0129482
0.16856
-2.45875e-09
0.000299092
0.0139839
0.186534
0.000276639
0.0148462
0.201269
0.000163654
0.0154533
0.211737
-2.09275e-08
0.0157679
0.217172
-0.000163695
0.0157679
0.217172
-0.00027668
0.0154533
0.211737
-0.000299132
0.0148462
0.201269
-0.000207211
0.0139839
0.186534
0.0129482
0.16856
-3.85935e-08
0.000295899
0.0142422
0.1749
-3.26806e-09
0.000426487
0.0152611
0.193962
0.000394746
0.0160946
0.209442
0.000233477
0.0166715
0.220367
-2.56802e-08
0.0169676
0.226018
-0.000233528
0.0169676
0.226018
-0.000394796
0.0166715
0.220367
-0.000426534
0.0160947
0.209442
-0.000295943
0.0152611
0.193962
0.0142422
0.1749
-4.30669e-08
0.000390112
0.014289
0.172544
-4.31181e-09
0.00056038
0.0151863
0.192025
0.000518441
0.0159048
0.20769
0.000306467
0.0163931
0.218672
-3.04978e-08
0.0166414
0.224328
-0.000306527
0.0166414
0.224328
-0.000518498
0.0163931
0.218672
-0.000560433
0.0159048
0.20769
-0.000390159
0.0151863
0.192025
0.014289
0.172544
-4.60427e-08
0.000484737
0.0132159
0.162942
-5.6921e-09
0.00069516
0.0139238
0.182378
0.000642603
0.0144775
0.197858
0.00037952
0.0148478
0.208636
-3.49257e-08
0.0150343
0.214163
-0.000379588
0.0150343
0.214163
-0.000642667
0.0148478
0.208636
-0.000695217
0.0144776
0.197858
-0.000484786
0.0139238
0.182378
0.013216
0.162942
-4.71999e-08
0.000580379
0.0112845
0.147496
-7.32957e-09
0.000830343
0.0117767
0.166614
0.000765321
0.0121552
0.181701
0.000451006
0.0124054
0.192132
-3.83901e-08
0.0125307
0.197458
-0.000451081
0.0125307
0.197458
-0.00076539
0.0124054
0.192132
-0.000830402
0.0121552
0.181701
-0.000580428
0.0117767
0.166614
0.0112845
0.147496
-4.62989e-08
0.000680737
0.127496
-8.85812e-09
0.00882277
0.000966329
0.146207
0.00911158
0.000886113
0.160806
0.00933723
0.000520245
0.170823
0.00948974
-3.98137e-08
0.175916
0.00956612
-0.000520322
0.175916
0.00956612
-0.000886182
0.170823
0.00948974
-0.000966387
0.160806
0.00933723
-0.000680783
0.146207
0.00911158
0.127496
-4.26984e-08
0.00882278
-4.88002e-06
0.000438096
0.0310643
-2.09612e-10
-7.41436e-06
0.000481704
0.0342877
-6.13089e-06
0.000518695
0.0369985
-3.4459e-06
0.000546647
0.0389593
-1.88051e-09
0.000561355
0.0399886
3.44207e-06
0.000561355
0.0399886
6.12692e-06
0.000546647
0.0389593
7.41018e-06
0.000518695
0.0369985
4.87566e-06
0.000481704
0.0342877
0.000438096
0.0310643
-4.61187e-09
-2.90893e-06
0.0014982
0.0833231
-5.51786e-10
-4.963e-06
0.00164845
0.0919651
-3.9015e-06
0.00177704
0.0992047
-1.99263e-06
0.00187242
0.104425
-5.61582e-09
0.00192285
0.107161
1.9813e-06
0.00192285
0.107161
3.88991e-06
0.00187242
0.104425
4.95104e-06
0.00177705
0.0992047
2.8967e-06
0.00164845
0.0919651
0.0014982
0.0833231
-1.22604e-08
9.48167e-06
0.00287712
0.123001
-9.41421e-10
1.35027e-05
0.00315813
0.135852
1.31912e-05
0.00339824
0.146558
8.19829e-06
0.00357383
0.154248
-9.1375e-09
0.00366648
0.158268
-8.21663e-06
0.00366648
0.158268
-1.32097e-05
0.00357383
0.154248
-1.35215e-05
0.00339824
0.146558
-9.50017e-06
0.00315813
0.135852
0.00287712
0.123001
-1.88928e-08
3.18335e-05
0.00426047
0.150718
-1.39224e-09
4.68008e-05
0.0046559
0.166626
4.43106e-05
0.00499137
0.179786
2.67033e-05
0.00523345
0.189195
-1.25564e-08
0.0053605
0.194099
-2.67284e-05
0.0053605
0.194099
-4.43358e-05
0.00523345
0.189195
-4.68259e-05
0.00499137
0.179786
-3.18578e-05
0.0046559
0.166626
0.00426047
0.150718
-2.44873e-08
6.31949e-05
0.00538
0.167377
-1.90754e-09
9.28362e-05
0.00584573
0.185314
8.72901e-05
0.00623634
0.200029
5.2221e-05
0.00651429
0.210491
-1.59098e-08
0.00665917
0.215926
-5.22527e-05
0.00665917
0.215926
-8.73214e-05
0.0065143
0.210491
-9.28669e-05
0.00623635
0.200029
-6.32242e-05
0.00584573
0.185314
0.00538001
0.167377
-2.90435e-08
0.000101758
0.00605715
0.174121
-2.49877e-09
0.000148657
0.00653802
0.193223
0.000139238
0.0069351
0.208752
8.30077e-05
0.0072134
0.219724
-1.92173e-08
0.0073573
0.225403
-8.30458e-05
0.0073573
0.225403
-0.000139275
0.00721341
0.219724
-0.000148692
0.0069351
0.208752
-0.000101791
0.00653803
0.193223
0.00605715
0.174121
-3.24957e-08
0.000145096
0.00621451
0.172242
-3.22604e-09
0.00021089
0.00665863
0.191839
0.000197007
0.00701826
0.207621
0.000117187
0.00726635
0.218699
-2.24499e-08
0.00739352
0.224409
-0.000117231
0.00739352
0.224409
-0.000197049
0.00726636
0.218699
-0.00021093
0.00701826
0.207621
-0.000145132
0.00665864
0.191839
0.00621451
0.172242
-3.48683e-08
0.000191072
0.00586692
0.163099
-4.14876e-09
0.00027697
0.0062349
0.182715
0.00025813
0.00652673
0.198368
0.000153226
0.00672501
0.209282
-2.53408e-08
0.00682576
0.214884
-0.000153276
0.00682576
0.214884
-0.000258177
0.00672502
0.209282
-0.000277013
0.00652674
0.198368
-0.000191109
0.0062349
0.182715
0.00586693
0.163099
-3.59616e-08
0.000240195
0.00509991
0.148023
-5.21467e-09
0.000346605
0.0053709
0.167371
0.0003215
0.00558204
0.182671
0.000190206
0.00572371
0.193264
-2.7561e-08
0.00579518
0.198679
-0.00019026
0.00579518
0.198679
-0.00032155
0.00572371
0.193264
-0.000346649
0.00558204
0.182671
-0.000240232
0.0053709
0.167371
0.00509991
0.148023
-3.56524e-08
0.000293103
0.128257
-6.20326e-09
0.00404595
0.000419212
0.147236
0.00421647
0.000386613
0.16207
0.00435057
0.000227773
0.172264
0.00444184
-2.8523e-08
0.177451
0.00448784
-0.000227829
0.177451
0.00448784
-0.000386664
0.172264
0.00444185
-0.000419255
0.16207
0.00435057
-0.000293139
0.147236
0.00421647
0.128257
-3.35798e-08
0.00404595
-2.69534e-07
0.000126055
0.0309385
-1.49996e-10
-8.77368e-07
0.000140023
0.0341483
-7.00046e-07
0.000152307
0.036846
-4.00657e-07
0.000161959
0.038797
-1.48759e-09
0.000167127
0.0398211
3.97628e-07
0.000167127
0.0398211
6.96995e-07
0.000161959
0.038797
8.74148e-07
0.000152307
0.036846
2.66169e-07
0.000140023
0.0341483
0.000126055
0.0309385
-3.27139e-09
1.68182e-06
0.000499352
0.0829481
-4.00558e-10
1.60046e-06
0.000553189
0.0915521
1.47229e-06
0.000600124
0.0987571
8.86431e-07
0.000635603
0.103952
-4.34698e-09
0.000654546
0.106674
-8.95166e-07
0.000654546
0.106674
-1.48105e-06
0.000635603
0.103952
-1.60921e-06
0.000600125
0.0987571
-1.69037e-06
0.00055319
0.091552
0.000499353
0.0829481
-8.6596e-09
7.05594e-06
0.0010262
0.122467
-6.99118e-10
9.46885e-06
0.00113303
0.13527
8.70131e-06
0.00122546
0.145933
5.1739e-06
0.001294
0.153593
-7.005e-09
0.00133043
0.157598
-5.18793e-06
0.00133043
0.157598
-8.71531e-06
0.001294
0.153593
-9.48283e-06
0.00122546
0.145933
-7.06949e-06
0.00113303
0.13527
0.0010262
0.122467
-1.34899e-08
1.62698e-05
0.00158607
0.150142
-1.01753e-09
2.31983e-05
0.00174336
0.166009
2.15326e-05
0.00187826
0.179135
1.28076e-05
0.00197681
0.18852
-9.51546e-09
0.0020289
0.193413
-1.28266e-05
0.0020289
0.193413
-2.15514e-05
0.00197682
0.18852
-2.32169e-05
0.00187826
0.179135
-1.62876e-05
0.00174336
0.166009
0.00158607
0.150142
-1.76001e-08
2.93371e-05
0.00206847
0.166866
-1.36521e-09
4.25304e-05
0.00226107
0.184783
3.96548e-05
0.00242438
0.199486
2.35955e-05
0.00254205
0.209942
-1.19017e-08
0.0026038
0.215374
-2.36191e-05
0.0026038
0.215374
-3.96782e-05
0.00254205
0.209942
-4.2553e-05
0.00242439
0.199486
-2.93585e-05
0.00226107
0.184783
0.00206848
0.166866
-2.09959e-08
4.58237e-05
0.00239105
0.173753
-1.75414e-09
6.66532e-05
0.00259695
0.192866
6.22333e-05
0.00276904
0.208412
3.70234e-05
0.00289123
0.2194
-1.4182e-08
0.00295487
0.225088
-3.70515e-05
0.00295487
0.225088
-6.22607e-05
0.00289123
0.2194
-6.66794e-05
0.00276904
0.208412
-4.58481e-05
0.00259695
0.192866
0.00239105
0.173753
-2.36368e-08
6.48945e-05
0.00250877
0.172059
-2.21519e-09
9.43438e-05
0.00270514
0.191701
8.80876e-05
0.00286634
0.20753
5.2373e-05
0.00297909
0.218647
-1.63488e-08
0.00303731
0.224379
-5.24053e-05
0.00303731
0.224379
-8.81187e-05
0.00297909
0.218647
-9.43729e-05
0.00286635
0.20753
-6.4921e-05
0.00270514
0.191701
0.00250877
0.172059
-2.55528e-08
8.56826e-05
0.00241496
0.163107
-2.7676e-09
0.000124443
0.00258285
0.182799
0.000116049
0.002718
0.198525
6.89062e-05
0.00281105
0.209497
-1.82703e-08
0.00285867
0.215132
-6.89422e-05
0.00285867
0.215132
-0.000116084
0.00281105
0.209497
-0.000124475
0.002718
0.198525
-8.57104e-05
0.00258285
0.182799
0.00241496
0.163107
-2.66433e-08
0.000108099
0.00213586
0.148194
-3.37506e-09
0.000156273
0.00226384
0.167642
0.000145122
0.00236466
0.183035
8.59256e-05
0.00243302
0.193702
-1.97847e-08
0.00246769
0.199156
-8.59643e-05
0.00246769
0.199156
-0.000145159
0.00243302
0.193701
-0.000156306
0.00236466
0.183035
-0.000108127
0.00226384
0.167642
0.00213586
0.148194
-2.68663e-08
0.00013064
0.128539
-3.92981e-09
0.00172345
0.000187736
0.147636
0.00180652
0.00017375
0.162577
0.00187196
0.000102598
0.172851
0.00191672
-2.0629e-08
0.178082
0.00193939
-0.000102638
0.178082
0.00193939
-0.000173787
0.172851
0.00191672
-0.000187769
0.162577
0.00187196
-0.000130668
0.147636
0.00180653
0.128539
-2.60655e-08
0.00172345
-1.0527e-06
5.55017e-05
0.0308841
-9.76774e-11
-1.54626e-06
6.08723e-05
0.0340879
-1.28679e-06
6.54286e-05
0.0367803
-7.25217e-07
6.89326e-05
0.0387275
-1.15191e-09
7.07739e-05
0.0397496
7.22913e-07
7.07739e-05
0.0397496
1.28454e-06
6.89326e-05
0.0387275
1.54398e-06
6.54288e-05
0.0367803
1.05048e-06
6.08725e-05
0.0340879
5.55019e-05
0.0308841
-2.20802e-09
-1.38928e-06
0.000201038
0.0828039
-2.69498e-10
-2.13721e-06
0.000221649
0.091392
-1.82491e-06
0.000239391
0.0985828
-1.0202e-06
0.000252755
0.103767
-3.29393e-09
0.000259848
0.106484
1.0136e-06
0.000259848
0.106484
1.81852e-06
0.000252755
0.103767
2.13081e-06
0.000239391
0.0985828
1.38315e-06
0.000221649
0.091392
0.000201039
0.0828039
-5.96648e-09
9.43929e-08
0.000405248
0.122263
-4.76216e-10
-3.66524e-08
0.000447188
0.135044
5.33935e-08
0.000483272
0.145689
1.02704e-07
0.000510017
0.153336
-5.26127e-09
0.000524241
0.157333
-1.13176e-07
0.000524241
0.157333
-6.4549e-08
0.000510018
0.153336
2.64866e-08
0.000483273
0.145689
-1.03996e-07
0.000447189
0.135044
0.000405249
0.122263
-9.34104e-09
3.22462e-06
0.000627834
0.149916
-6.88937e-10
4.67132e-06
0.00069129
0.165763
4.49098e-06
0.000745638
0.178873
2.74069e-06
0.000785462
0.188247
-7.09648e-09
0.000806545
0.193134
-2.75482e-06
0.000806545
0.193134
-4.50474e-06
0.000785463
0.188247
-4.68477e-06
0.000745639
0.178873
-3.23727e-06
0.000691291
0.165763
0.000627836
0.149916
-1.22465e-08
8.19644e-06
0.000826812
0.166659
-9.10942e-10
1.20344e-05
0.000906739
0.184564
1.13909e-05
0.00097458
0.199258
6.85041e-06
0.00102368
0.209708
-8.78254e-09
0.00104953
0.215138
-6.86785e-06
0.00104953
0.215138
-1.14079e-05
0.00102368
0.209708
-1.20508e-05
0.000974582
0.199258
-8.21174e-06
0.00090674
0.184564
0.000826814
0.166659
-1.46991e-08
1.47889e-05
0.000967657
0.173597
-1.14829e-09
2.17195e-05
0.00105554
0.192711
2.04713e-05
0.00112917
0.208259
1.22566e-05
0.00118176
0.21925
-1.03518e-08
0.00120924
0.224941
-1.22771e-05
0.00120924
0.224941
-2.04912e-05
0.00118176
0.21925
-2.17384e-05
0.00112917
0.208259
-1.48064e-05
0.00105554
0.192711
0.000967658
0.173597
-1.66606e-08
2.26948e-05
0.00102856
0.171976
-1.41545e-09
3.32691e-05
0.00111473
0.191632
3.12871e-05
0.00118574
0.207475
1.86879e-05
0.00123573
0.218606
-1.18117e-08
0.00126165
0.224345
-1.87112e-05
0.00126165
0.224345
-3.13095e-05
0.00123573
0.218606
-3.32901e-05
0.00118574
0.207475
-2.2714e-05
0.00111473
0.191632
0.00102856
0.171976
-1.81646e-08
3.16038e-05
0.00100253
0.163101
-1.7227e-09
4.62479e-05
0.00107828
0.182821
4.33803e-05
0.00113958
0.198574
2.58493e-05
0.00118209
0.209568
-1.31049e-08
0.00120392
0.215215
-2.58751e-05
0.00120392
0.215215
-4.3405e-05
0.00118209
0.209568
-4.62707e-05
0.00113959
0.198574
-3.16241e-05
0.00107828
0.182821
0.00100253
0.163101
-1.91668e-08
4.15707e-05
0.00089651
0.148258
-2.05285e-09
6.04406e-05
0.000956018
0.167746
5.63699e-05
0.00100318
0.183176
3.3463e-05
0.00103536
0.193871
-1.41618e-08
0.00105175
0.199341
-3.34908e-05
0.00105175
0.199341
-5.63962e-05
0.00103536
0.193871
-6.04645e-05
0.00100318
0.183176
-4.15916e-05
0.000956019
0.167746
0.000896511
0.148258
-1.96427e-08
5.19547e-05
0.128654
-2.35089e-09
0.000729602
7.50127e-05
0.147799
0.000769568
6.9683e-05
0.162784
0.000801212
4.12385e-05
0.173092
0.000822943
-1.4875e-08
0.178341
0.000833977
-4.12677e-05
0.178341
0.000833977
-6.97103e-05
0.173092
0.000822943
-7.50371e-05
0.162784
0.000801212
-5.19757e-05
0.147799
0.000769568
0.128654
-1.9541e-08
0.000729601
-1.77834e-07
1.42526e-05
0.03087
-6.39851e-11
-3.17125e-07
1.58491e-05
0.0340722
-2.65284e-07
1.72912e-05
0.036763
-1.52235e-07
1.84609e-05
0.0387089
-8.48543e-10
1.90907e-05
0.0397304
1.50539e-07
1.90907e-05
0.0397304
2.63636e-07
1.84609e-05
0.0387089
3.15506e-07
1.72913e-05
0.036763
1.76348e-07
1.58492e-05
0.0340722
1.42528e-05
0.03087
-1.47009e-09
-1.33082e-07
6.30782e-05
0.0827552
-1.88412e-10
-3.41024e-07
7.02009e-05
0.0913379
-3.07582e-07
7.64844e-05
0.0985236
-1.76404e-07
8.13243e-05
0.103704
-2.40463e-09
8.39272e-05
0.106419
1.71614e-07
8.39272e-05
0.106419
3.02931e-07
8.13244e-05
0.103704
3.3646e-07
7.64847e-05
0.0985235
1.28534e-07
7.02014e-05
0.0913379
6.30784e-05
0.0827552
-4.02299e-09
4.68193e-07
0.000137724
0.122188
-3.1794e-10
5.19158e-07
0.000153046
0.134961
4.70106e-07
0.000166442
0.145599
2.82555e-07
0.000176532
0.153241
-3.8314e-09
0.000181937
0.157236
-2.90171e-07
0.000181937
0.157236
-4.77512e-07
0.000176532
0.153241
-5.26272e-07
0.000166442
0.145599
-4.74681e-07
0.000153046
0.134961
0.000137724
0.122188
-6.2575e-09
1.74734e-06
0.000223003
0.149829
-4.48851e-10
2.41427e-06
0.000247054
0.165669
2.2347e-06
0.000267902
0.178772
1.33115e-06
0.00028337
0.188141
-5.13532e-09
0.000291611
0.193025
-1.34135e-06
0.000291611
0.193025
-2.24461e-06
0.00028337
0.188141
-2.42375e-06
0.000267902
0.178772
-1.75607e-06
0.000247054
0.165669
0.000223004
0.149829
-8.2572e-09
3.74664e-06
0.000302562
0.166575
-5.82296e-10
5.38409e-06
0.000333716
0.184476
5.02254e-06
0.00036044
0.199166
2.99285e-06
0.000379998
0.209613
-6.32037e-09
0.000390351
0.215042
-3.00538e-06
0.000390352
0.215042
-5.0347e-06
0.000379998
0.209613
-5.39564e-06
0.00036044
0.199166
-3.75724e-06
0.000333717
0.184476
0.000302563
0.166575
-9.98242e-09
6.43707e-06
0.000362136
0.173531
-7.20886e-10
9.36252e-06
0.000397199
0.192644
8.76432e-06
0.000426876
0.208193
5.22455e-06
0.000448297
0.219186
-7.40004e-09
0.000459554
0.224877
-5.2392e-06
0.000459554
0.224877
-8.77849e-06
0.000448297
0.219186
-9.37587e-06
0.000426877
0.208193
-6.44923e-06
0.0003972
0.192644
0.000362138
0.173531
-1.13986e-08
9.71776e-06
0.000391917
0.171936
-8.70174e-10
1.41894e-05
0.000427004
0.191597
1.32994e-05
0.000456218
0.207447
7.92634e-06
0.000476995
0.218582
-8.3877e-09
0.000487823
0.224325
-7.94291e-06
0.000487823
0.224325
-1.33153e-05
0.000476996
0.218582
-1.42043e-05
0.000456219
0.207447
-9.7312e-06
0.000427005
0.191597
0.000391918
0.171936
-1.25318e-08
1.34652e-05
0.000387787
0.163092
-1.03221e-09
1.96736e-05
0.000419236
0.182822
1.84222e-05
0.000444931
0.198586
1.09651e-05
0.000462908
0.20959
-9.26647e-09
0.000472185
0.215242
-1.09834e-05
0.000472185
0.215242
-1.84397e-05
0.000462908
0.20959
-1.96898e-05
0.000444932
0.198586
-1.34796e-05
0.000419237
0.182822
0.000387788
0.163092
-1.33673e-08