/*--------------------------------*- C++ -*----------------------------------*\
| =========                 |                                                 |
| \\      /  F ield         | OpenFOAM: The Open Source CFD Toolbox           |
|  \\    /   O peration     | Version:  2106                                  |
|   \\  /    A nd           | Website:  www.openfoam.com                      |
|    \\/     M anipulation  |                                                 |
\*---------------------------------------------------------------------------*/
FoamFile
{
    version     2.0;
    format      ascii;
    arch        "LSB;label=32;scalar=64";
    class       volVectorField;
    location    "0.18";
    object      U;
}
// * * * * * * * * * * * * * * * * * * * * * * * * * * * * * * * * * * * * * //

dimensions      [0 1 -1 0 0 0 0];

internalField   nonuniform List<vector> 
10000
(
(0.0560489 0.0660119 0.312558)
(0.0478089 0.0750238 0.325619)
(0.0357179 0.0831839 0.33588)
(0.0221591 0.0888817 0.342962)
(0.00751008 0.0918288 0.34656)
(-0.00751009 0.0918288 0.34656)
(-0.0221591 0.0888817 0.342962)
(-0.0357179 0.0831839 0.33588)
(-0.0478089 0.0750237 0.325619)
(-0.0560489 0.0660119 0.312558)
(0.151982 0.180304 0.656701)
(0.12821 0.204029 0.674183)
(0.0956616 0.224907 0.687218)
(0.0591553 0.239348 0.696018)
(0.0200189 0.246792 0.700414)
(-0.0200189 0.246792 0.700414)
(-0.0591553 0.239348 0.696018)
(-0.0956616 0.224907 0.687218)
(-0.12821 0.204029 0.674183)
(-0.151982 0.180304 0.656701)
(0.19362 0.229998 0.831337)
(0.161384 0.256844 0.845181)
(0.119543 0.280307 0.85485)
(0.0735135 0.29631 0.861211)
(0.024809 0.304494 0.864324)
(-0.024809 0.304494 0.864324)
(-0.0735135 0.29631 0.861211)
(-0.119543 0.280307 0.85485)
(-0.161384 0.256844 0.845181)
(-0.19362 0.229997 0.831337)
(0.20284 0.240669 0.918478)
(0.167257 0.265026 0.927404)
(0.123001 0.286381 0.933017)
(0.0752347 0.300736 0.936572)
(0.0253227 0.308016 0.938257)
(-0.0253227 0.308016 0.938257)
(-0.0752347 0.300736 0.936572)
(-0.123001 0.286381 0.933017)
(-0.167257 0.265026 0.927404)
(-0.20284 0.240669 0.918478)
(0.197048 0.233498 0.959938)
(0.160975 0.253718 0.964694)
(0.117626 0.271605 0.967058)
(0.0715994 0.283476 0.968426)
(0.0240426 0.289445 0.96902)
(-0.0240427 0.289445 0.96902)
(-0.0715995 0.283476 0.968426)
(-0.117626 0.271605 0.967058)
(-0.160975 0.253718 0.964694)
(-0.197048 0.233498 0.959938)
(0.183705 0.217412 0.977008)
(0.148777 0.233135 0.978691)
(0.108077 0.247233 0.978793)
(0.065489 0.256493 0.97867)
(0.0219428 0.261108 0.978536)
(-0.0219429 0.261108 0.978536)
(-0.065489 0.256493 0.97867)
(-0.108077 0.247233 0.978793)
(-0.148777 0.233135 0.978691)
(-0.183706 0.217412 0.977008)
(0.166438 0.196587 0.981264)
(0.133628 0.20791 0.980873)
(0.0965352 0.218265 0.979556)
(0.0582434 0.225023 0.978518)
(0.0194746 0.228364 0.977948)
(-0.0194747 0.228364 0.977948)
(-0.0582435 0.225023 0.978518)
(-0.0965353 0.218265 0.979556)
(-0.133628 0.20791 0.980873)
(-0.166438 0.196587 0.981264)
(0.147475 0.173638 0.979175)
(0.117373 0.180903 0.9775)
(0.0843599 0.187764 0.975401)
(0.0506978 0.192252 0.973877)
(0.0169194 0.194464 0.973082)
(-0.0169195 0.194464 0.973082)
(-0.0506979 0.192252 0.973877)
(-0.08436 0.187764 0.975401)
(-0.117373 0.180903 0.9775)
(-0.147475 0.173638 0.979175)
(0.128227 0.150228 0.974349)
(0.101249 0.153862 0.971924)
(0.072435 0.157582 0.969482)
(0.0433806 0.160109 0.967768)
(0.0144529 0.161369 0.966895)
(-0.014453 0.161369 0.966895)
(-0.0433807 0.160109 0.967768)
(-0.0724351 0.157581 0.969482)
(-0.101249 0.153862 0.971924)
(-0.128227 0.150228 0.974349)
(0.10972 0.127531 0.968813)
(0.0862804 0.126776 0.965981)
(0.0613003 0.128129 0.96345)
(0.036578 0.129172 0.961733)
(0.0121658 0.129711 0.960868)
(-0.0121661 0.129711 0.960868)
(-0.0365782 0.129172 0.961733)
(-0.0613005 0.128129 0.963449)
(-0.0862806 0.126776 0.965981)
(-0.10972 0.127531 0.968813)
(0.00994255 0.0127322 0.254071)
(0.00833071 0.0156548 0.265755)
(0.00629132 0.0179871 0.275327)
(0.00397832 0.0195845 0.281991)
(0.00136104 0.0204158 0.285403)
(-0.00136104 0.0204158 0.285403)
(-0.00397833 0.0195845 0.281991)
(-0.00629133 0.017987 0.275327)
(-0.00833073 0.0156547 0.265755)
(-0.00994257 0.0127322 0.254071)
(0.0455856 0.0553709 0.596551)
(0.0389922 0.0664934 0.617046)
(0.0297773 0.0759589 0.633489)
(0.0187949 0.0826347 0.644793)
(0.00642742 0.0861297 0.650528)
(-0.00642744 0.0861297 0.650528)
(-0.0187949 0.0826347 0.644793)
(-0.0297774 0.0759589 0.633489)
(-0.0389922 0.0664933 0.617046)
(-0.0455856 0.0553708 0.596551)
(0.0793576 0.0951716 0.824751)
(0.0673715 0.112167 0.846295)
(0.0511109 0.126647 0.863177)
(0.0320404 0.136793 0.874621)
(0.0109194 0.14207 0.880375)
(-0.0109195 0.14207 0.880375)
(-0.0320404 0.136793 0.874621)
(-0.051111 0.126647 0.863177)
(-0.0673716 0.112167 0.846295)
(-0.0793577 0.0951715 0.824751)
(0.105333 0.125426 0.974417)
(0.0885399 0.145315 0.99327)
(0.0666425 0.162161 1.00762)
(0.0414984 0.173846 1.01719)
(0.0140952 0.179879 1.02195)
(-0.0140952 0.179879 1.02195)
(-0.0414985 0.173846 1.01719)
(-0.0666426 0.162161 1.00762)
(-0.08854 0.145315 0.99327)
(-0.105333 0.125426 0.974417)
(0.12188 0.144352 1.06966)
(0.101427 0.164579 1.08427)
(0.0757577 0.181577 1.09498)
(0.0468836 0.193243 1.10196)
(0.0158749 0.199222 1.10538)
(-0.015875 0.199222 1.10538)
(-0.0468837 0.193243 1.10196)
(-0.0757578 0.181576 1.09498)
(-0.101427 0.164579 1.08427)
(-0.12188 0.144352 1.06966)
(0.129855 0.153066 1.12725)
(0.107004 0.171799 1.13729)
(0.0793389 0.187382 1.14424)
(0.0488177 0.197972 1.14862)
(0.0164821 0.203357 1.1507)
(-0.0164823 0.203357 1.1507)
(-0.0488178 0.197972 1.14862)
(-0.079339 0.187382 1.14424)
(-0.107004 0.171799 1.13729)
(-0.129855 0.153066 1.12725)
(0.130782 0.153436 1.15927)
(0.106715 0.169481 1.16509)
(0.0785743 0.182647 1.16871)
(0.0480888 0.191512 1.17081)
(0.0161926 0.19599 1.17175)
(-0.0161928 0.19599 1.17175)
(-0.0480889 0.191512 1.17081)
(-0.0785744 0.182647 1.16871)
(-0.106715 0.169481 1.16509)
(-0.130782 0.153436 1.15927)
(0.126239 0.14736 1.17438)
(0.102011 0.160019 1.17669)
(0.074625 0.170208 1.17764)
(0.0454509 0.177023 1.17796)
(0.0152675 0.180449 1.17802)
(-0.0152677 0.180449 1.17802)
(-0.0454511 0.177023 1.17796)
(-0.0746252 0.170208 1.17764)
(-0.102011 0.160019 1.17669)
(-0.126239 0.14736 1.17438)
(0.11769 0.136524 1.17881)
(0.0942686 0.145445 1.17843)
(0.0685534 0.152414 1.17744)
(0.0415712 0.157096 1.17649)
(0.0139341 0.159452 1.17592)
(-0.0139344 0.159452 1.17592)
(-0.0415714 0.157096 1.17649)
(-0.0685536 0.152414 1.17744)
(-0.0942688 0.145445 1.17843)
(-0.117691 0.136524 1.17881)
(0.106571 0.122954 1.17703)
(0.0848754 0.12678 1.17468)
(0.0612563 0.130674 1.17242)
(0.0369767 0.133345 1.17068)
(0.0123673 0.134696 1.16974)
(-0.0123676 0.134696 1.16974)
(-0.036977 0.133345 1.17068)
(-0.0612565 0.130674 1.17242)
(-0.0848756 0.12678 1.17468)
(-0.106571 0.122954 1.17703)
(0.000800977 0.000860636 0.162693)
(0.000850937 0.00110545 0.171178)
(0.000675671 0.00142244 0.178253)
(0.000455826 0.00166317 0.183262)
(0.000159706 0.00179761 0.185855)
(-0.000159715 0.00179761 0.185855)
(-0.000455834 0.00166317 0.183262)
(-0.000675682 0.00142244 0.178253)
(-0.000850949 0.00110544 0.171178)
(-0.000800991 0.000860624 0.162693)
(0.0134523 0.0155637 0.444454)
(0.0121523 0.0189421 0.464066)
(0.009526 0.0221724 0.480152)
(0.00612007 0.0245635 0.491434)
(0.00210953 0.0258486 0.497237)
(-0.00210956 0.0258486 0.497237)
(-0.00612009 0.0245635 0.491434)
(-0.00952603 0.0221724 0.480152)
(-0.0121523 0.0189421 0.464066)
(-0.0134523 0.0155637 0.444454)
(0.0298664 0.0347483 0.675208)
(0.0263889 0.0415578 0.700539)
(0.0204797 0.0478255 0.720949)
(0.0130302 0.0523998 0.735119)
(0.00447147 0.0548326 0.742361)
(-0.00447151 0.0548326 0.742361)
(-0.0130303 0.0523998 0.735119)
(-0.0204797 0.0478255 0.720949)
(-0.0263889 0.0415577 0.700539)
(-0.0298665 0.0347482 0.675208)
(0.0466853 0.0544358 0.856718)
(0.0406014 0.0640605 0.883441)
(0.031216 0.0727189 0.904539)
(0.0197089 0.0789509 0.919016)
(0.00673826 0.0822353 0.926361)
(-0.00673832 0.0822353 0.926361)
(-0.019709 0.0789508 0.919016)
(-0.0312161 0.0727189 0.904539)
(-0.0406015 0.0640605 0.883441)
(-0.0466854 0.0544358 0.856718)
(0.0606834 0.070746 0.994561)
(0.0520719 0.081956 1.01968)
(0.0396882 0.0918711 1.03905)
(0.0248897 0.0989182 1.05215)
(0.00848152 0.102602 1.05875)
(-0.0084816 0.102602 1.05875)
(-0.0248898 0.0989182 1.05215)
(-0.0396883 0.0918711 1.03905)
(-0.052072 0.081956 1.01968)
(-0.0606835 0.0707459 0.994561)
(0.0705548 0.082102 1.09573)
(0.0598111 0.0936225 1.11745)
(0.0452169 0.103661 1.13373)
(0.028183 0.110716 1.14457)
(0.00957482 0.114375 1.14997)
(-0.00957492 0.114375 1.14997)
(-0.0281831 0.110716 1.14457)
(-0.045217 0.103661 1.13373)
(-0.0598113 0.0936225 1.11745)
(-0.0705549 0.082102 1.09573)
(0.0761077 0.0882965 1.16732)
(0.0637841 0.0990508 1.18481)
(0.0478508 0.108276 1.1975)
(0.0296552 0.114697 1.20579)
(0.0100467 0.118005 1.20986)
(-0.0100469 0.118005 1.20986)
(-0.0296553 0.114697 1.20579)
(-0.047851 0.108276 1.1975)
(-0.0637843 0.0990508 1.18481)
(-0.0761078 0.0882964 1.16732)
(0.0776665 0.0897345 1.21588)
(0.0643794 0.0989043 1.22904)
(0.0479492 0.106627 1.23824)
(0.0295597 0.111961 1.24409)
(0.00998836 0.114695 1.24692)
(-0.00998852 0.114695 1.24692)
(-0.0295599 0.111961 1.24409)
(-0.0479494 0.106627 1.23824)
(-0.0643795 0.0989043 1.22904)
(-0.0776666 0.0897345 1.21588)
(0.075836 0.0871088 1.24712)
(0.0622257 0.0941287 1.25637)
(0.0460208 0.0998818 1.26254)
(0.0282267 0.103849 1.26633)
(0.0095138 0.105878 1.26811)
(-0.00951399 0.105878 1.26811)
(-0.0282269 0.103849 1.26633)
(-0.046021 0.0998818 1.26254)
(-0.0622258 0.0941287 1.25637)
(-0.0758362 0.0871088 1.24712)
(0.0714519 0.0816987 1.26575)
(0.0581077 0.0854445 1.27189)
(0.0425762 0.0890083 1.27569)
(0.0259638 0.0914735 1.27788)
(0.00872673 0.0927311 1.27887)
(-0.00872693 0.0927311 1.27887)
(-0.025964 0.0914735 1.27788)
(-0.0425764 0.0890083 1.27569)
(-0.0581079 0.0854445 1.27189)
(-0.0714521 0.0816987 1.26575)
(0.000576643 0.000771223 0.150161)
(0.000442739 0.000966325 0.15756)
(0.000298986 0.00110035 0.163591)
(0.000181871 0.00117724 0.167831)
(6.05291e-05 0.00121469 0.17002)
(-6.05352e-05 0.00121469 0.17002)
(-0.000181878 0.00117724 0.167831)
(-0.000298995 0.00110034 0.163591)
(-0.00044275 0.000966319 0.15756)
(-0.000576655 0.000771214 0.150161)
(0.00488101 0.0059011 0.416608)
(0.00419804 0.00726274 0.434836)
(0.0032037 0.00842427 0.449571)
(0.00203312 0.0092454 0.459876)
(0.00069672 0.00967882 0.465175)
(-0.000696739 0.00967882 0.465175)
(-0.00203314 0.00924539 0.459876)
(-0.00320372 0.00842426 0.449571)
(-0.00419807 0.00726273 0.434836)
(-0.00488104 0.00590108 0.416608)
(0.0114985 0.0136913 0.643573)
(0.00994941 0.0166095 0.668555)
(0.00764878 0.0191444 0.688519)
(0.00485055 0.0209606 0.702381)
(0.00166231 0.0219202 0.709475)
(-0.00166234 0.0219202 0.709475)
(-0.00485059 0.0209606 0.702381)
(-0.00764882 0.0191444 0.688519)
(-0.00994946 0.0166095 0.668555)
(-0.0114986 0.0136912 0.643573)
(0.0190987 0.0225938 0.83109)
(0.0164671 0.0270299 0.859099)
(0.0126377 0.0308867 0.881158)
(0.00798611 0.0336465 0.896335)
(0.00273231 0.0350995 0.904059)
(-0.00273236 0.0350995 0.904059)
(-0.00798616 0.0336465 0.896335)
(-0.0126378 0.0308867 0.881158)
(-0.0164671 0.0270299 0.859099)
(-0.0190988 0.0225937 0.83109)
(0.0263094 0.0309803 0.981548)
(0.0225258 0.0365326 1.0096)
(0.0172041 0.0413317 1.0313)
(0.0108217 0.0447448 1.04607)
(0.00369407 0.0465323 1.05354)
(-0.00369413 0.0465323 1.05354)
(-0.0108218 0.0447448 1.04607)
(-0.0172042 0.0413317 1.0313)
(-0.0225259 0.0365325 1.0096)
(-0.0263095 0.0309802 0.981548)
(0.032259 0.0378228 1.09891)
(0.0273841 0.0439309 1.12487)
(0.0207865 0.0491583 1.14454)
(0.0130092 0.0528464 1.15777)
(0.00442966 0.0547665 1.1644)
(-0.00442974 0.0547665 1.1644)
(-0.0130093 0.0528464 1.15777)
(-0.0207866 0.0491583 1.14454)
(-0.0273841 0.0439309 1.12487)
(-0.0322591 0.0378228 1.09891)
(0.0364796 0.0425818 1.18782)
(0.0306769 0.0486641 1.2104)
(0.0231308 0.0537989 1.22712)
(0.0144017 0.057391 1.2382)
(0.00489123 0.0592502 1.24371)
(-0.00489133 0.0592502 1.24371)
(-0.0144018 0.057391 1.2382)
(-0.0231309 0.0537989 1.22712)
(-0.030677 0.0486641 1.2104)
(-0.0364797 0.0425818 1.18782)
(0.0387867 0.0450469 1.25312)
(0.0322989 0.0505755 1.27176)
(0.0241894 0.0551617 1.28523)
(0.0149846 0.0583447 1.29403)
(0.00507632 0.0599837 1.29835)
(-0.00507645 0.0599837 1.29835)
(-0.0149847 0.0583447 1.29403)
(-0.0241895 0.0551617 1.28523)
(-0.0322991 0.0505755 1.27176)
(-0.0387869 0.0450469 1.25312)
(0.0392269 0.0452473 1.29938)
(0.0323577 0.0497905 1.31414)
(0.0240682 0.0534621 1.32456)
(0.0148337 0.0560005 1.33123)
(0.0050123 0.0573028 1.33447)
(-0.00501243 0.0573028 1.33447)
(-0.0148338 0.0560005 1.33123)
(-0.0240684 0.0534621 1.32456)
(-0.0323578 0.0497905 1.31414)
(-0.039227 0.0452473 1.29938)
(0.0380751 0.0436901 1.33061)
(0.0311309 0.0464916 1.34222)
(0.0229451 0.0489789 1.35008)
(0.014059 0.0506959 1.35498)
(0.00473676 0.0515732 1.35732)
(-0.0047369 0.0515732 1.35732)
(-0.0140591 0.050696 1.35498)
(-0.0229452 0.048979 1.35008)
(-0.031131 0.0464916 1.34222)
(-0.0380752 0.0436901 1.33061)
(6.73079e-05 6.35297e-05 0.142567)
(7.14588e-05 8.67884e-05 0.149675)
(5.47222e-05 0.000117178 0.155467)
(3.79142e-05 0.000139844 0.159547)
(1.32371e-05 0.000152711 0.161655)
(-1.32428e-05 0.00015271 0.161655)
(-3.79202e-05 0.000139843 0.159547)
(-5.47292e-05 0.000117176 0.155467)
(-7.1467e-05 8.67837e-05 0.149675)
(-6.73168e-05 6.35224e-05 0.142567)
(0.00147865 0.00169545 0.398527)
(0.00133927 0.00210293 0.416327)
(0.00105296 0.00249152 0.430734)
(0.000681203 0.00278213 0.440835)
(0.000235386 0.00293991 0.446035)
(-0.000235402 0.00293991 0.446035)
(-0.00068122 0.00278213 0.440835)
(-0.00105298 0.00249152 0.430734)
(-0.00133929 0.00210292 0.416327)
(-0.00147867 0.00169543 0.398527)
(0.00397121 0.00459821 0.620028)
(0.00354127 0.00562146 0.644888)
(0.00277567 0.00656632 0.664813)
(0.00178216 0.00726852 0.678696)
(0.000614216 0.00764646 0.685816)
(-0.000614243 0.00764645 0.685816)
(-0.00178219 0.00726851 0.678696)
(-0.0027757 0.00656632 0.664813)
(-0.00354131 0.00562144 0.644888)
(-0.00397125 0.00459819 0.620028)
(0.00715145 0.00830482 0.806948)
(0.00630899 0.0100172 0.835476)
(0.00491915 0.0115721 0.858058)
(0.00314063 0.0127178 0.873671)
(0.00107973 0.0133304 0.881639)
(-0.00107977 0.0133304 0.881639)
(-0.00314067 0.0127178 0.873671)
(-0.00491919 0.011572 0.858058)
(-0.00630904 0.0100172 0.835476)
(-0.0071515 0.00830479 0.806948)
(0.0104616 0.0121478 0.96078)
(0.00913818 0.0144501 0.990142)
(0.00708093 0.0165132 1.01303)
(0.00449675 0.0180197 1.02871)
(0.00154207 0.01882 1.03667)
(-0.00154212 0.01882 1.03667)
(-0.0044968 0.0180196 1.02871)
(-0.00708099 0.0165132 1.01303)
(-0.00913824 0.0144501 0.990142)
(-0.0104617 0.0121477 0.96078)
(0.013462 0.0156029 1.08432)
(0.0116437 0.0182871 1.11235)
(0.00896185 0.0206613 1.13384)
(0.00566107 0.022379 1.1484)
(0.00193635 0.0232859 1.15574)
(-0.00193641 0.0232859 1.15574)
(-0.00566113 0.022379 1.1484)
(-0.00896191 0.0206612 1.13384)
(-0.0116437 0.0182871 1.11235)
(-0.0134621 0.0156029 1.08432)
(0.0158478 0.0183114 1.18106)
(0.0135706 0.0211187 1.20634)
(0.0103721 0.0235662 1.22535)
(0.00651727 0.0253213 1.23809)
(0.0022234 0.0262423 1.24447)
(-0.00222347 0.0262423 1.24447)
(-0.00651735 0.0253213 1.23809)
(-0.0103722 0.0235662 1.22535)
(-0.0135707 0.0211186 1.20634)
(-0.0158479 0.0183114 1.18106)
(0.017436 0.0200576 1.25486)
(0.0147801 0.0227227 1.27662)
(0.0112167 0.0250075 1.29269)
(0.00701085 0.0266317 1.30334)
(0.00238549 0.0274794 1.30863)
(-0.00238557 0.0274794 1.30863)
(-0.00701094 0.0266317 1.30334)
(-0.0112168 0.0250075 1.29269)
(-0.0147801 0.0227227 1.27662)
(-0.0174361 0.0200576 1.25486)
(0.0181679 0.0207619 1.30949)
(0.0152467 0.0230477 1.32762)
(0.0114845 0.0249566 1.34078)
(0.00713806 0.026304 1.34939)
(0.00242189 0.0270034 1.35362)
(-0.00242198 0.0270034 1.35362)
(-0.00713816 0.0263041 1.34939)
(-0.0114846 0.0249566 1.34078)
(-0.0152468 0.0230477 1.32762)
(-0.018168 0.0207619 1.30949)
(0.0181117 0.0206141 1.34834)
(0.0150334 0.0221326 1.36351)
(0.0112063 0.0234789 1.37413)
(0.00691813 0.0244204 1.38093)
(0.00233934 0.0249054 1.38424)
(-0.00233943 0.0249054 1.38424)
(-0.00691823 0.0244204 1.38093)
(-0.0112064 0.0234789 1.37413)
(-0.0150335 0.0221326 1.36351)
(-0.0181118 0.0206141 1.34834)
(6.13705e-05 8.41154e-05 0.141111)
(4.30634e-05 0.000106302 0.148101)
(2.58479e-05 0.000119262 0.153769)
(1.48826e-05 0.000125292 0.157756)
(4.73458e-06 0.000127904 0.159814)
(-4.73955e-06 0.000127903 0.159814)
(-1.48878e-05 0.000125291 0.157756)
(-2.58536e-05 0.00011926 0.153769)
(-4.30696e-05 0.000106298 0.148101)
(-6.1377e-05 8.411e-05 0.141111)
(0.000612946 0.000742824 0.394392)
(0.000519924 0.00091951 0.411951)
(0.000391924 0.00106562 0.42611)
(0.000247517 0.00116755 0.436027)
(8.45436e-05 0.00122116 0.441131)
(-8.45567e-05 0.00122116 0.441131)
(-0.000247531 0.00116755 0.436027)
(-0.000391939 0.00106561 0.42611)
(-0.00051994 0.000919502 0.411951)
(-0.000612962 0.000742812 0.394392)
(0.00160924 0.00191507 0.614198)
(0.00139163 0.00234629 0.638857)
(0.00106983 0.00271797 0.658568)
(0.000679506 0.00298557 0.672295)
(0.000233005 0.00312756 0.679334)
(-0.000233027 0.00312756 0.679334)
(-0.000679529 0.00298557 0.672295)
(-0.00106985 0.00271796 0.658568)
(-0.00139166 0.00234628 0.638857)
(-0.00160926 0.00191506 0.614198)
(0.00291821 0.00344711 0.800818)
(0.00253178 0.00417863 0.829352)
(0.00195428 0.00481674 0.851903)
(0.00124115 0.00527917 0.867494)
(0.000425691 0.00552465 0.875454)
(-0.000425721 0.00552465 0.875454)
(-0.00124118 0.00527917 0.867494)
(-0.00195431 0.00481673 0.851903)
(-0.00253182 0.00417862 0.829352)
(-0.00291825 0.00344709 0.800818)
(0.00434689 0.00510926 0.955776)
(0.00376141 0.00612012 0.985461)
(0.00289959 0.00700256 1.0086)
(0.00183711 0.0076411 1.02446)
(0.000629409 0.00797916 1.03252)
(-0.000629446 0.00797916 1.03252)
(-0.00183715 0.0076411 1.02446)
(-0.00289964 0.00700255 1.0086)
(-0.00376146 0.00612011 0.985461)
(-0.00434694 0.00510924 0.955776)
(0.00571809 0.00669138 1.08165)
(0.00492044 0.00790829 1.11038)
(0.0037784 0.00896491 1.13242)
(0.00238537 0.00972571 1.14739)
(0.000815822 0.0101268 1.15495)
(-0.000815868 0.0101268 1.15495)
(-0.00238541 0.00972571 1.14739)
(-0.00377845 0.0089649 1.13242)
(-0.00492049 0.00790828 1.11038)
(-0.00571815 0.00669136 1.08165)
(0.00688517 0.00802072 1.18163)
(0.00588131 0.00933671 1.20795)
(0.00449264 0.0104683 1.22782)
(0.00282431 0.0112777 1.24117)
(0.000963917 0.0117024 1.24787)
(-0.00096397 0.0117024 1.24787)
(-0.00282436 0.0112777 1.24117)
(-0.0044927 0.0104683 1.22782)
(-0.00588137 0.0093367 1.20795)
(-0.00688523 0.00802071 1.18163)
(0.0077394 0.00896806 1.2592)
(0.00655568 0.0102609 1.2823)
(0.004978 0.0113577 1.29946)
(0.00311502 0.0121365 1.31088)
(0.00106066 0.0125431 1.31657)
(-0.00106073 0.0125431 1.31657)
(-0.00311509 0.0121365 1.31088)
(-0.00497807 0.0113577 1.29946)
(-0.00655574 0.0102609 1.2823)
(-0.00773946 0.00896805 1.2592)
(0.00822239 0.00945623 1.31778)
(0.00690349 0.0106063 1.33747)
(0.00520697 0.0115601 1.35189)
(0.00324143 0.0122331 1.36138)
(0.00110077 0.0125825 1.36607)
(-0.00110084 0.0125825 1.36607)
(-0.00324149 0.0122331 1.36138)
(-0.00520704 0.0115601 1.35189)
(-0.00690355 0.0106063 1.33747)
(-0.00822245 0.00945622 1.31778)
(0.00833699 0.00953961 1.36039)
(0.00692866 0.0103467 1.37732)
(0.00517497 0.0110515 1.38932)
(0.00320078 0.0115444 1.39707)
(0.00108341 0.0117984 1.40086)
(-0.00108347 0.0117984 1.40086)
(-0.00320084 0.0115444 1.39707)
(-0.00517503 0.0110515 1.38932)
(-0.00692872 0.0103467 1.37732)
(-0.00833704 0.00953961 1.36039)
(4.93851e-06 4.08709e-06 0.140167)
(4.87167e-06 6.27019e-06 0.147121)
(3.20225e-06 8.89816e-06 0.15276)
(2.36306e-06 1.06832e-05 0.156727)
(8.08585e-07 1.17317e-05 0.158775)
(-8.12639e-07 1.17314e-05 0.158775)
(-2.36731e-06 1.06822e-05 0.156727)
(-3.20681e-06 8.8965e-06 0.15276)
(-4.87636e-06 6.26753e-06 0.147121)
(-4.94318e-06 4.08322e-06 0.140167)
(0.000190362 0.0002189 0.391895)
(0.00016993 0.00027316 0.409375)
(0.000132438 0.000323311 0.423469)
(8.55195e-05 0.000360523 0.433344)
(2.94982e-05 0.000380751 0.438427)
(-2.95085e-05 0.00038075 0.438427)
(-8.55302e-05 0.000360521 0.433344)
(-0.000132449 0.000323307 0.423469)
(-0.000169941 0.000273154 0.409375)
(-0.000190373 0.000218891 0.391895)
(0.000557698 0.000646357 0.610626)
(0.000495376 0.000796806 0.635213)
(0.000387963 0.000933822 0.654871)
(0.000249397 0.00103591 0.668566)
(8.59911e-05 0.00109104 0.675591)
(-8.6008e-05 0.00109104 0.675591)
(-0.000249414 0.0010359 0.668566)
(-0.000387982 0.000933816 0.654871)
(-0.000495395 0.000796797 0.635213)
(-0.000557717 0.000646344 0.610626)
(0.00107066 0.00124294 0.796764)
(0.000946256 0.00151527 0.825296)
(0.000740332 0.00176147 0.847857)
(0.000474327 0.00194436 0.863467)
(0.000163359 0.0020427 0.87144)
(-0.000163382 0.0020427 0.87144)
(-0.000474351 0.00194435 0.863467)
(-0.000740357 0.00176146 0.847857)
(-0.000946281 0.00151526 0.825296)
(-0.00107068 0.00124293 0.796764)
(0.00165717 0.00192216 0.951858)
(0.0014558 0.00231536 0.981665)
(0.00113514 0.00266831 1.00492)
(0.000724659 0.00292909 1.02088)
(0.000249175 0.0030687 1.02899)
(-0.000249204 0.0030687 1.02899)
(-0.000724688 0.00292909 1.02088)
(-0.00113517 0.0026683 1.00492)
(-0.00145583 0.00231535 0.981665)
(-0.0016572 0.00192214 0.951858)
(0.002245 0.00259782 1.07844)
(0.00195832 0.00308763 1.10744)
(0.00151976 0.00352347 1.12973)
(0.000966273 0.00384339 1.14489)
(0.000331615 0.00401384 1.15255)
(-0.000331649 0.00401384 1.15255)
(-0.000966308 0.00384338 1.14489)
(-0.0015198 0.00352346 1.12973)
(-0.00195835 0.00308761 1.10744)
(-0.00224503 0.0025978 1.07844)
(0.00276943 0.00319341 1.17958)
(0.00239662 0.00373838 1.20633)
(0.00184947 0.00421806 1.22658)
(0.0011707 0.00456757 1.24022)
(0.000400893 0.00475285 1.24707)
(-0.000400932 0.00475285 1.24707)
(-0.00117074 0.00456757 1.24022)
(-0.00184951 0.00421806 1.22658)
(-0.00239666 0.00373837 1.20633)
(-0.00276947 0.00319339 1.17958)
(0.00317829 0.00364693 1.25863)
(0.00272679 0.0041959 1.28231)
(0.00209116 0.00467247 1.29997)
(0.00131732 0.00501688 1.31176)
(0.000450005 0.00519844 1.31765)
(-0.000450048 0.00519844 1.31765)
(-0.00131736 0.00501688 1.31176)
(-0.00209121 0.00467247 1.29997)
(-0.00272683 0.00419589 1.28231)
(-0.00317833 0.00364692 1.25863)
(0.00343995 0.00391846 1.31886)
(0.00292405 0.00441885 1.33925)
(0.00222621 0.00484273 1.35427)
(0.00139452 0.0051463 1.36419)
(0.000475005 0.00530523 1.36911)
(-0.000475051 0.00530523 1.36911)
(-0.00139457 0.00514629 1.36419)
(-0.00222625 0.00484272 1.35427)
(-0.0029241 0.00441884 1.33925)
(-0.00344 0.00391844 1.31886)
(0.00354774 0.00402741 1.36313)
(0.00298017 0.00439203 1.38088)
(0.00224443 0.00471079 1.39354)
(0.00139582 0.00493579 1.40176)
(0.000473701 0.00505246 1.40579)
(-0.000473749 0.00505246 1.40579)
(-0.00139587 0.00493579 1.40176)
(-0.00224448 0.00471079 1.39354)
(-0.00298021 0.00439203 1.38088)
(-0.00354778 0.0040274 1.36313)
(7.88777e-06 1.1557e-05 0.139979)
(4.72837e-06 1.4744e-05 0.146918)
(2.28609e-06 1.62093e-05 0.15254)
(1.13712e-06 1.66611e-05 0.156496)
(3.15896e-07 1.67856e-05 0.158537)
(-3.19137e-07 1.67854e-05 0.158537)
(-1.14046e-06 1.66603e-05 0.156496)
(-2.28955e-06 1.6208e-05 0.15254)
(-4.73187e-06 1.4742e-05 0.146918)
(-7.89107e-06 1.15542e-05 0.139979)
(8.64812e-05 0.000106137 0.391298)
(7.16583e-05 0.000131847 0.408739)
(5.30996e-05 0.000152102 0.422794)
(3.32419e-05 0.000165917 0.43264)
(1.12937e-05 0.000173105 0.437707)
(-1.13018e-05 0.000173104 0.437707)
(-3.32502e-05 0.000165915 0.43264)
(-5.3108e-05 0.000152099 0.422794)
(-7.16669e-05 0.000131842 0.408739)
(-8.64892e-05 0.00010613 0.391298)
(0.000238042 0.000284612 0.609707)
(0.000204147 0.000350463 0.634253)
(0.000156132 0.000406082 0.653867)
(9.89449e-05 0.000445933 0.667531)
(3.38806e-05 0.00046705 0.674539)
(-3.38936e-05 0.000467049 0.674539)
(-9.89581e-05 0.000445931 0.667531)
(-0.000156146 0.000406077 0.653867)
(-0.000204161 0.000350455 0.634253)
(-0.000238055 0.000284602 0.609707)
(0.000449183 0.000531455 0.795702)
(0.000389048 0.000648645 0.824215)
(0.000300264 0.000750026 0.846754)
(0.000190833 0.000823661 0.862348)
(6.5472e-05 0.000862843 0.870312)
(-6.54894e-05 0.000862842 0.870312)
(-0.000190851 0.000823658 0.862348)
(-0.000300282 0.00075002 0.846754)
(-0.000389067 0.000648636 0.824215)
(-0.000449201 0.000531443 0.795702)
(0.000694794 0.000816763 0.950874)
(0.000602627 0.000986604 0.980709)
(0.00046591 0.00113466 1.00399)
(0.00029598 0.00124251 1.01996)
(0.000101542 0.00129987 1.02808)
(-0.000101563 0.00129987 1.02808)
(-0.000296001 0.00124251 1.01996)
(-0.000465932 0.00113465 1.00399)
(-0.000602649 0.000986594 0.980709)
(-0.000694815 0.000816749 0.950874)
(0.000947304 0.0011078 1.07776)
(0.000819376 0.00132199 1.10685)
(0.000632373 0.00150858 1.12922)
(0.000400852 0.00164422 1.14444)
(0.000137379 0.00171618 1.15213)
(-0.000137404 0.00171618 1.15213)
(-0.000400877 0.00164422 1.14444)
(-0.000632399 0.00150857 1.12922)
(-0.000819402 0.00132198 1.10685)
(-0.000947329 0.00110779 1.07776)
(0.0011796 0.00137251 1.1794)
(0.00101491 0.00161473 1.20633)
(0.000780345 0.00182446 1.22671)
(0.000493037 0.00197621 1.24046)
(0.000168699 0.00205641 1.24737)
(-0.000168728 0.00205641 1.24737)
(-0.000493066 0.0019762 1.24046)
(-0.000780374 0.00182445 1.22671)
(-0.00101494 0.00161472 1.20633)
(-0.00117962 0.00137249 1.1794)
(0.00136768 0.0015822 1.25912)
(0.00116864 0.00183072 1.28304)
(0.000894075 0.00204369 1.3009)
(0.000562619 0.00219678 1.31284)
(0.000192112 0.00227732 1.31881)
(-0.000192143 0.00227731 1.31881)
(-0.000562651 0.00219678 1.31284)
(-0.000894106 0.00204369 1.3009)
(-0.00116867 0.00183071 1.28304)
(-0.00136771 0.00158219 1.25912)
(0.00149489 0.00171543 1.32009)
(0.00126716 0.00194657 1.3408)
(0.000963332 0.00214057 1.35608)
(0.000603141 0.00227897 1.36618)
(0.00020541 0.00235131 1.3712)
(-0.000205444 0.00235131 1.3712)
(-0.000603174 0.00227897 1.36618)
(-0.000963365 0.00214056 1.35608)
(-0.00126719 0.00194656 1.3408)
(-0.00149492 0.00171542 1.32009)
(0.0015551 0.00177645 1.36514)
(0.00130414 0.00194924 1.38327)
(0.000981551 0.00209934 1.39624)
(0.000610441 0.00220509 1.40467)
(0.000207176 0.00225988 1.40881)
(-0.000207212 0.00225988 1.40881)
(-0.000610477 0.00220509 1.40467)
(-0.000981584 0.00209934 1.39624)
(-0.00130417 0.00194923 1.38327)
(-0.00155513 0.00177644 1.36514)
(6.0836e-08 -1.63815e-08 0.139844)
(-7.66721e-08 2.16651e-07 0.146778)
(-2.38661e-07 4.00691e-07 0.152396)
(-1.3402e-07 4.85183e-07 0.156348)
(-5.27309e-08 5.34463e-07 0.158388)
(5.01132e-08 5.34262e-07 0.158388)
(1.31427e-07 4.84569e-07 0.156348)
(2.36107e-07 3.99679e-07 0.152396)
(7.42871e-08 2.15253e-07 0.146778)
(-6.29802e-08 -1.82431e-08 0.139844)
(2.64073e-05 3.06779e-05 0.390924)
(2.30786e-05 3.85835e-05 0.408351)
(1.77399e-05 4.55862e-05 0.422395)
(1.13916e-05 5.07159e-05 0.432233)
(3.91439e-06 5.34877e-05 0.437296)
(-3.92076e-06 5.34872e-05 0.437296)
(-1.13979e-05 5.07145e-05 0.432233)
(-1.77461e-05 4.55838e-05 0.422395)
(-2.30844e-05 3.85803e-05 0.408351)
(-2.64125e-05 3.06738e-05 0.390924)
(8.21576e-05 9.55294e-05 0.609148)
(7.2424e-05 0.000118553 0.633679)
(5.64936e-05 0.000139148 0.65328)
(3.62662e-05 0.000154456 0.666935)
(1.24923e-05 0.000162717 0.673939)
(-1.25024e-05 0.000162717 0.673939)
(-3.62762e-05 0.000154454 0.666935)
(-5.65034e-05 0.000139144 0.65328)
(-7.24334e-05 0.000118548 0.633679)
(-8.21662e-05 9.55232e-05 0.609148)
(0.000163828 0.000190299 0.795036)
(0.000144502 0.00023366 0.823541)
(0.00011305 0.000272535 0.846074)
(7.24873e-05 0.000301483 0.861666)
(2.49717e-05 0.000317078 0.869629)
(-2.49851e-05 0.000317077 0.869629)
(-7.25005e-05 0.00030148 0.861666)
(-0.000113063 0.000272531 0.846074)
(-0.000144515 0.000233654 0.823541)
(-0.00016384 0.000190291 0.795036)
(0.000261795 0.000303409 0.950192)
(0.00023028 0.000368386 0.980037)
(0.00017998 0.000426538 1.00332)
(0.000115155 0.000469737 1.01931)
(3.96386e-05 0.000492947 1.02744)
(-3.96547e-05 0.000492946 1.02744)
(-0.000115171 0.000469734 1.01931)
(-0.000179996 0.000426533 1.00332)
(-0.000230295 0.000368379 0.980037)
(-0.00026181 0.000303401 0.950192)
(0.000365031 0.000421707 1.07715)
(0.000319564 0.000505579 1.10629)
(0.000248997 0.000580258 1.12869)
(0.000158838 0.000635487 1.14393)
(5.46005e-05 0.000665053 1.15164)
(-5.46192e-05 0.000665052 1.15164)
(-0.000158857 0.000635484 1.14393)
(-0.000249015 0.000580253 1.12869)
(-0.000319582 0.000505572 1.10629)
(-0.000365048 0.000421698 1.07715)
(0.000462372 0.000531988 1.17897)
(0.000402255 0.000628549 1.20596)
(0.00031204 0.00071383 1.2264)
(0.000198323 0.000776519 1.2402)
(6.80501e-05 0.000809934 1.24713)
(-6.80712e-05 0.000809933 1.24713)
(-0.000198344 0.000776516 1.2402)
(-0.000312061 0.000713825 1.2264)
(-0.000402274 0.000628543 1.20596)
(-0.000462391 0.000531979 1.17897)
(0.000543655 0.000622157 1.25892)
(0.000469492 0.000722725 1.28294)
(0.000362209 0.000810518 1.30089)
(0.000229204 0.000874548 1.31289)
(7.84717e-05 0.000908494 1.31889)
(-7.84947e-05 0.000908493 1.31889)
(-0.000229227 0.000874546 1.31289)
(-0.000362232 0.000810514 1.30089)
(-0.000469513 0.000722719 1.28294)
(-0.000543675 0.000622149 1.25892)
(0.000601639 0.000683194 1.32018)
(0.000515113 0.000778081 1.34101)
(0.000394643 0.000858957 1.3564)
(0.000248344 0.000917341 1.36659)
(8.47817e-05 0.000948056 1.37165)
(-8.48062e-05 0.000948056 1.37165)
(-0.000248369 0.00091734 1.36659)
(-0.000394668 0.000858953 1.3564)
(-0.000515136 0.000778076 1.34101)
(-0.000601661 0.000683187 1.32018)
(0.000633011 0.000717083 1.36554)
(0.000535343 0.000789559 1.38383)
(0.000405626 0.000852463 1.39692)
(0.000253358 0.000897093 1.40544)
(8.61612e-05 0.000920314 1.40963)
(-8.61864e-05 0.000920314 1.40963)
(-0.000253384 0.000897091 1.40544)
(-0.000405651 0.000852461 1.39692)
(-0.000535368 0.000789556 1.38382)
(-0.000633034 0.000717079 1.36554)
(1.06345e-06 1.719e-06 0.13982)
(4.76975e-07 2.2226e-06 0.146751)
(1.00998e-07 2.38994e-06 0.152366)
(-6.85406e-09 2.39279e-06 0.156317)
(-1.81564e-08 2.36977e-06 0.158355)
(1.61828e-08 2.36962e-06 0.158355)