/*--------------------------------*- C++ -*----------------------------------*\
| =========                 |                                                 |
| \\      /  F ield         | OpenFOAM: The Open Source CFD Toolbox           |
|  \\    /   O peration     | Version:  2106                                  |
|   \\  /    A nd           | Website:  www.openfoam.com                      |
|    \\/     M anipulation  |                                                 |
\*---------------------------------------------------------------------------*/
FoamFile
{
    version     2.0;
    format      ascii;
    arch        "LSB;label=32;scalar=64";
    class       volVectorField;
    location    "0.51";
    object      U;
}
// * * * * * * * * * * * * * * * * * * * * * * * * * * * * * * * * * * * * * //

dimensions      [0 1 -1 0 0 0 0];

internalField   nonuniform List<vector> 
10000
(
(0.0629285 0.0741508 0.347215)
(0.0536704 0.0843289 0.361783)
(0.0400821 0.0935327 0.373216)
(0.0248653 0.0999518 0.381112)
(0.00842675 0.103271 0.385125)
(-0.00842676 0.103271 0.385125)
(-0.0248654 0.0999518 0.381112)
(-0.0400821 0.0935327 0.373216)
(-0.0536704 0.0843289 0.361783)
(-0.0629286 0.0741508 0.347215)
(0.173004 0.205252 0.732238)
(0.146034 0.232634 0.752002)
(0.109021 0.256718 0.766726)
(0.0674505 0.273389 0.776681)
(0.0228316 0.281987 0.781659)
(-0.0228317 0.281987 0.781659)
(-0.0674506 0.273389 0.776681)
(-0.109021 0.256718 0.766726)
(-0.146035 0.232634 0.752002)
(-0.173004 0.205252 0.732238)
(0.223757 0.265695 0.929295)
(0.186755 0.29754 0.94521)
(0.138527 0.325348 0.956335)
(0.0852798 0.344369 0.963679)
(0.0287955 0.354115 0.96728)
(-0.0287955 0.354115 0.96728)
(-0.0852799 0.344369 0.963679)
(-0.138527 0.325348 0.956335)
(-0.186755 0.29754 0.94521)
(-0.223757 0.265695 0.929295)
(0.238713 0.283002 1.02897)
(0.197278 0.312972 1.03953)
(0.145422 0.339194 1.04623)
(0.0891075 0.356928 1.05051)
(0.0300193 0.365954 1.05256)
(-0.0300193 0.365954 1.05256)
(-0.0891076 0.356928 1.05051)
(-0.145422 0.339194 1.04623)
(-0.197278 0.312972 1.03953)
(-0.238713 0.283002 1.02897)
(0.236599 0.280002 1.07758)
(0.193914 0.306035 1.08355)
(0.142184 0.328952 1.08669)
(0.08677 0.344313 1.08857)
(0.0291749 0.352084 1.08942)
(-0.029175 0.352084 1.08942)
(-0.0867701 0.344313 1.08857)
(-0.142184 0.328952 1.08669)
(-0.193914 0.306035 1.08355)
(-0.236599 0.280001 1.07758)
(0.225365 0.266226 1.09874)
(0.183297 0.287613 1.10132)
(0.133754 0.306593 1.10196)
(0.0813212 0.319239 1.1022)
(0.0272941 0.325598 1.10225)
(-0.0272942 0.325598 1.10225)
(-0.0813214 0.319239 1.1022)
(-0.133755 0.306593 1.10196)
(-0.183298 0.287613 1.10132)
(-0.225365 0.266226 1.09874)
(0.208788 0.24602 1.10534)
(0.168518 0.262531 1.1056)
(0.12241 0.277332 1.10467)
(0.0741597 0.287172 1.10389)
(0.0248481 0.292098 1.10345)
(-0.0248483 0.292098 1.10345)
(-0.0741599 0.287172 1.10389)
(-0.12241 0.277332 1.10467)
(-0.168518 0.262531 1.1056)
(-0.208789 0.24602 1.10534)
(0.189226 0.222139 1.1046)
(0.151541 0.233831 1.10339)
(0.109607 0.244454 1.10156)
(0.0661841 0.251549 1.10023)
(0.0221402 0.255101 1.09953)
(-0.0221405 0.255101 1.09953)
(-0.0661843 0.251549 1.10023)
(-0.109608 0.244453 1.10156)
(-0.151541 0.233831 1.10339)
(-0.189226 0.222139 1.1046)
(0.168229 0.196393 1.10053)
(0.133754 0.203469 1.09843)
(0.0963463 0.210054 1.09618)
(0.0579931 0.214582 1.0946)
(0.0193703 0.216869 1.0938)
(-0.0193705 0.216869 1.0938)
(-0.0579933 0.214582 1.0946)
(-0.0963465 0.210054 1.09618)
(-0.133755 0.203469 1.09843)
(-0.168229 0.196393 1.10053)
(0.14697 0.170437 1.0954)
(0.116372 0.171429 1.09282)
(0.0832434 0.174627 1.09042)
(0.0499209 0.176959 1.08881)
(0.0166444 0.178158 1.08799)
(-0.0166448 0.178158 1.08799)
(-0.0499212 0.176959 1.08881)
(-0.0832437 0.174627 1.09042)
(-0.116372 0.171429 1.09282)
(-0.14697 0.170437 1.0954)
(0.011256 0.0143795 0.268496)
(0.00945583 0.0176881 0.280849)
(0.00713988 0.0203456 0.290965)
(0.00451948 0.0221673 0.298007)
(0.00154631 0.0231163 0.301611)
(-0.00154634 0.0231163 0.301611)
(-0.00451951 0.0221673 0.298007)
(-0.0071399 0.0203455 0.290965)
(-0.00945585 0.0176881 0.280849)
(-0.0112561 0.0143794 0.268496)
(0.0546173 0.066092 0.634178)
(0.0468938 0.0795127 0.656284)
(0.0358863 0.0910104 0.674013)
(0.022686 0.0991561 0.686204)
(0.0077631 0.103431 0.692392)
(-0.00776317 0.103431 0.692392)
(-0.0226861 0.099156 0.686204)
(-0.0358864 0.0910104 0.674013)
(-0.0468938 0.0795126 0.656284)
(-0.0546174 0.0660919 0.634178)
(0.0980339 0.117109 0.882912)
(0.0836259 0.138487 0.906899)
(0.063656 0.156829 0.925711)
(0.0399987 0.16977 0.938491)
(0.0136466 0.176528 0.944927)
(-0.0136467 0.176528 0.944927)
(-0.0399988 0.16977 0.938491)
(-0.0636561 0.156829 0.925711)
(-0.083626 0.138487 0.906899)
(-0.098034 0.117109 0.882912)
(0.134052 0.158958 1.05177)
(0.113372 0.185093 1.07389)
(0.085739 0.207407 1.09082)
(0.053567 0.223038 1.10218)
(0.0182236 0.231153 1.10785)
(-0.0182237 0.231153 1.10785)
(-0.0535672 0.223038 1.10218)
(-0.0857391 0.207407 1.09082)
(-0.113372 0.185093 1.07389)
(-0.134052 0.158958 1.05177)
(0.159728 0.188331 1.16539)
(0.133922 0.216146 1.18407)
(0.100639 0.239735 1.19797)
(0.0625494 0.256136 1.20718)
(0.0212242 0.264604 1.21174)
(-0.0212244 0.264604 1.21174)
(-0.0625496 0.256136 1.20718)
(-0.100639 0.239735 1.19797)
(-0.133922 0.216146 1.18407)
(-0.159728 0.188331 1.16539)
(0.17514 0.205439 1.24061)
(0.145592 0.232446 1.25542)
(0.108742 0.255147 1.26611)
(0.0672596 0.270822 1.27307)
(0.0227676 0.278872 1.27649)
(-0.0227678 0.278872 1.27649)
(-0.0672598 0.270822 1.27307)
(-0.108742 0.255147 1.26611)
(-0.145592 0.232446 1.25542)
(-0.175141 0.205439 1.24061)
(0.181384 0.21167 1.28936)
(0.149483 0.235978 1.30049)
(0.110988 0.256166 1.30824)
(0.0683357 0.270021 1.31321)
(0.0230794 0.277102 1.31561)
(-0.0230797 0.277102 1.31561)
(-0.0683361 0.270021 1.31321)
(-0.110988 0.256166 1.30824)
(-0.149484 0.235977 1.30049)
(-0.181385 0.21167 1.28936)
(0.179835 0.208695 1.32006)
(0.146913 0.228941 1.32801)
(0.108455 0.245481 1.33332)
(0.0664897 0.256776 1.33664)
(0.0224078 0.262531 1.33822)
(-0.0224082 0.262531 1.33822)
(-0.0664901 0.256776 1.33664)
(-0.108456 0.245481 1.33332)
(-0.146914 0.228941 1.32801)
(-0.179835 0.208695 1.32006)
(0.171978 0.198221 1.3386)
(0.139324 0.213496 1.344)
(0.102268 0.225619 1.34741)
(0.0624278 0.233917 1.34947)
(0.0209941 0.23814 1.35043)
(-0.0209946 0.23814 1.35043)
(-0.0624283 0.233917 1.34947)
(-0.102269 0.225619 1.34741)
(-0.139325 0.213496 1.344)
(-0.171978 0.198221 1.3386)
(0.1594 0.183056 1.34918)
(0.128282 0.190812 1.35267)
(0.0933932 0.198203 1.35468)
(0.056724 0.203298 1.35581)
(0.0190293 0.20589 1.35631)
(-0.0190298 0.20589 1.35631)
(-0.0567245 0.203298 1.35581)
(-0.0933936 0.198203 1.35468)
(-0.128282 0.190812 1.35267)
(-0.1594 0.183056 1.34918)
(0.00111947 0.00124936 0.159263)
(0.0011319 0.00159586 0.167647)
(0.000882603 0.00200425 0.174646)
(0.00059078 0.00230688 0.1796)
(0.000205868 0.00247456 0.182165)
(-0.000205892 0.00247456 0.182165)
(-0.000590804 0.00230687 0.1796)
(-0.000882627 0.00200424 0.174646)
(-0.00113193 0.00159585 0.167647)
(-0.00111949 0.00124934 0.159263)
(0.0179952 0.0208809 0.445993)
(0.0161839 0.0254728 0.466381)
(0.0126659 0.0297956 0.483122)
(0.00813431 0.0329882 0.494871)
(0.00280284 0.0347032 0.500917)
(-0.00280291 0.0347032 0.500917)
(-0.00813438 0.0329882 0.494871)
(-0.012666 0.0297956 0.483122)
(-0.016184 0.0254727 0.466381)
(-0.0179952 0.0208808 0.445993)
(0.0409692 0.0476894 0.691663)
(0.0361811 0.0572851 0.719458)
(0.0281055 0.0660391 0.741914)
(0.0179016 0.072439 0.757542)
(0.00614608 0.0758467 0.765544)
(-0.0061462 0.0758467 0.765544)
(-0.0179017 0.0724389 0.757542)
(-0.0281056 0.0660391 0.741914)
(-0.0361812 0.057285 0.719458)
(-0.0409693 0.0476893 0.691663)
(0.065697 0.0765372 0.895723)
(0.0572526 0.0906397 0.927087)
(0.044142 0.103257 0.952002)
(0.0279346 0.112383 0.969192)
(0.00956135 0.117207 0.977948)
(-0.00956154 0.117207 0.977948)
(-0.0279348 0.112383 0.969192)
(-0.0441422 0.103257 0.952002)
(-0.0572528 0.0906396 0.927087)
(-0.0656972 0.0765371 0.895723)
(0.0877149 0.102075 1.06163)
(0.0755656 0.119206 1.09372)
(0.0578439 0.134305 1.11878)
(0.036398 0.145119 1.13591)
(0.012424 0.150797 1.14459)
(-0.0124242 0.150797 1.14459)
(-0.0363982 0.145118 1.13591)
(-0.0578441 0.134305 1.11878)
(-0.0755659 0.119205 1.09372)
(-0.0877151 0.102075 1.06163)
(0.104802 0.121648 1.19433)
(0.0893315 0.140056 1.22524)
(0.0679088 0.156057 1.24893)
(0.0425067 0.167414 1.265)
(0.0144719 0.173341 1.27311)
(-0.0144722 0.173341 1.27311)
(-0.042507 0.167414 1.265)
(-0.0679091 0.156057 1.24893)
(-0.0893317 0.140056 1.22524)
(-0.104802 0.121647 1.19433)
(0.116137 0.134322 1.29905)
(0.0979801 0.152331 1.32758)
(0.0739793 0.167751 1.34909)
(0.0460739 0.178607 1.36355)
(0.0156478 0.184241 1.37081)
(-0.0156481 0.184241 1.37081)
(-0.0460743 0.178607 1.36355)
(-0.0739796 0.167751 1.34909)
(-0.0979804 0.152331 1.32758)
(-0.116137 0.134321 1.29905)
(0.121624 0.140021 1.38065)
(0.101571 0.156175 1.4062)
(0.0761787 0.16976 1.42517)
(0.0472117 0.179252 1.43782)
(0.0159954 0.184156 1.44413)
(-0.0159958 0.184156 1.44413)
(-0.0472122 0.179252 1.43782)
(-0.0761791 0.16976 1.42517)
(-0.101571 0.156175 1.4062)
(-0.121624 0.14002 1.38065)
(0.121687 0.139212 1.44332)
(0.100619 0.152357 1.46581)
(0.0749401 0.163088 1.48223)
(0.0462051 0.170555 1.49306)
(0.0156142 0.174396 1.49843)
(-0.0156147 0.174396 1.49843)
(-0.0462055 0.170555 1.49306)
(-0.0749406 0.163088 1.48222)
(-0.100619 0.152356 1.4658)
(-0.121687 0.139212 1.44332)
(0.117164 0.133708 1.49055)
(0.0959381 0.141559 1.51047)
(0.0707518 0.148671 1.52446)
(0.043353 0.153596 1.53356)
(0.014606 0.156116 1.53803)
(-0.0146065 0.156116 1.53803)
(-0.0433535 0.153596 1.53356)
(-0.0707523 0.148671 1.52446)
(-0.0959386 0.141559 1.51047)
(-0.117164 0.133708 1.49055)
(0.000711331 0.000935153 0.13969)
(0.000555321 0.00117264 0.146586)
(0.00037988 0.00134076 0.1522)
(0.000235295 0.00144008 0.156142)
(7.87449e-05 0.0014897 0.158174)
(-7.8766e-05 0.0014897 0.158174)
(-0.000235316 0.00144007 0.156142)
(-0.000379902 0.00134075 0.1522)
(-0.000555343 0.00117262 0.146586)
(-0.00071135 0.000935136 0.13969)
(0.00698159 0.0083519 0.400255)
(0.0060598 0.0102943 0.418524)
(0.00465822 0.0119743 0.433311)
(0.00297111 0.0131795 0.443659)
(0.00102024 0.0138204 0.448984)
(-0.00102031 0.0138204 0.448984)
(-0.00297118 0.0131795 0.443659)
(-0.00465828 0.0119743 0.433311)
(-0.00605987 0.0102943 0.418524)
(-0.00698165 0.00835186 0.400255)
(0.017094 0.0201907 0.635756)
(0.0149062 0.0245802 0.662669)
(0.0115326 0.028431 0.68428)
(0.00734547 0.031225 0.699338)
(0.00252227 0.0327109 0.707065)
(-0.00252239 0.0327109 0.707065)
(-0.00734559 0.031225 0.699338)
(-0.0115327 0.0284309 0.68428)
(-0.0149063 0.0245801 0.662669)
(-0.0170941 0.0201906 0.635756)
(0.029285 0.0343931 0.844222)
(0.0254528 0.0413649 0.877015)
(0.0196661 0.0474803 0.903094)
(0.0124859 0.0519129 0.921172)
(0.00428133 0.0542628 0.930419)
(-0.00428149 0.0542628 0.930419)
(-0.0124861 0.0519129 0.921172)
(-0.0196662 0.0474803 0.903094)
(-0.025453 0.0413649 0.877015)
(-0.0292852 0.034393 0.844222)
(0.0415189 0.0485428 1.02559)
(0.035861 0.05764 1.06177)
(0.0275951 0.0655737 1.09023)
(0.0174501 0.0712952 1.10985)
(0.00597198 0.0743153 1.11985)
(-0.0059722 0.0743153 1.11985)
(-0.0174503 0.0712951 1.10985)
(-0.0275953 0.0655737 1.09023)
(-0.0358612 0.0576399 1.06177)
(-0.0415191 0.0485427 1.02559)
(0.0523246 0.060906 1.18107)
(0.044848 0.0713326 1.21854)
(0.0343267 0.0803399 1.24768)
(0.021611 0.0867921 1.26765)
(0.00737994 0.0901812 1.27779)
(-0.00738022 0.0901812 1.27779)
(-0.0216113 0.086792 1.26765)
(-0.0343269 0.0803399 1.24768)
(-0.0448482 0.0713325 1.21854)
(-0.0523248 0.0609059 1.18107)
(0.0607394 0.0703692 1.31251)
(0.051613 0.0811826 1.34964)
(0.0392662 0.0904043 1.37816)
(0.0246053 0.0969604 1.3976)
(0.00838303 0.100386 1.40744)
(-0.00838336 0.100386 1.40744)
(-0.0246056 0.0969603 1.3976)
(-0.0392665 0.0904043 1.37816)
(-0.0516132 0.0811825 1.34964)
(-0.0607396 0.0703691 1.31251)
(0.0661951 0.076278 1.42206)
(0.0557298 0.0865222 1.45765)
(0.0421245 0.0951143 1.48468)
(0.0262681 0.101173 1.50299)
(0.00892775 0.104323 1.51222)
(-0.00892813 0.104323 1.51222)
(-0.0262685 0.101173 1.50299)
(-0.0421249 0.0951142 1.48468)
(-0.0557301 0.0865222 1.45764)
(-0.0661954 0.0762779 1.42206)
(0.0685156 0.0783924 1.51183)
(0.0571328 0.0872101 1.54521)
(0.0428783 0.0943982 1.57026)
(0.0265941 0.0994312 1.58707)
(0.00901397 0.102033 1.59549)
(-0.00901439 0.102033 1.59549)
(-0.0265945 0.0994312 1.58707)
(-0.0428786 0.0943982 1.57026)
(-0.0571331 0.0872101 1.54521)
(-0.0685159 0.0783924 1.51183)
(0.0678962 0.0774956 1.58366)
(0.0560275 0.0833274 1.61511)
(0.0416231 0.0883995 1.63784)
(0.0256449 0.0919184 1.65288)
(0.0086636 0.0937239 1.66036)
(-0.00866405 0.0937239 1.66036)
(-0.0256453 0.0919184 1.65288)
(-0.0416235 0.0883995 1.63784)
(-0.0560279 0.0833274 1.61511)
(-0.0678965 0.0774955 1.58366)
(0.000126641 0.000137989 0.128902)
(0.000117673 0.000181235 0.13534)
(8.69037e-05 0.00022588 0.140573)
(5.94301e-05 0.000257184 0.144252)
(2.05177e-05 0.000274917 0.146151)
(-2.0535e-05 0.000274915 0.146151)
(-5.94475e-05 0.00025718 0.144252)
(-8.69213e-05 0.000225873 0.140573)
(-0.000117691 0.000181224 0.13534)
(-0.000126657 0.000137976 0.128901)
(0.00245405 0.00283818 0.373452)
(0.00219533 0.003519 0.390924)
(0.00171934 0.00414676 0.405075)
(0.00111105 0.00461374 0.415002)
(0.000383604 0.00486717 0.420117)
(-0.00038366 0.00486717 0.420117)
(-0.00111111 0.00461373 0.415002)
(-0.0017194 0.00414674 0.405075)
(-0.00219539 0.00351897 0.390924)
(-0.0024541 0.00283814 0.373452)
(0.00668218 0.00775241 0.599686)
(0.00593617 0.00950309 0.626133)
(0.00465203 0.0110937 0.647434)
(0.00298904 0.0122767 0.662334)
(0.00103045 0.0129141 0.669997)
(-0.00103054 0.0129141 0.669997)
(-0.00298913 0.0122766 0.662334)
(-0.00465213 0.0110936 0.647434)
(-0.00593626 0.00950305 0.626133)
(-0.00668226 0.00775236 0.599686)
(0.0122531 0.0142192 0.806016)
(0.0108124 0.0172377 0.839284)
(0.00844812 0.0199538 0.865886)
(0.00540478 0.0219635 0.884426)
(0.00185998 0.0230409 0.893941)
(-0.00186012 0.0230409 0.893941)
(-0.00540492 0.0219634 0.884426)
(-0.00844825 0.0199538 0.865886)
(-0.0108125 0.0172376 0.839284)
(-0.0122533 0.0142192 0.806016)
(0.0183054 0.0212094 0.991666)
(0.0160344 0.0254061 1.02965)
(0.0124713 0.0291467 1.05977)
(0.00794464 0.0318957 1.08068)
(0.00272866 0.0333621 1.09138)
(-0.00272884 0.0333621 1.09138)
(-0.00794482 0.0318956 1.08068)
(-0.0124715 0.0291467 1.05977)
(-0.0160346 0.025406 1.02965)
(-0.0183056 0.0212093 0.991666)
(0.0240857 0.0278287 1.15653)
(0.020928 0.0328989 1.19729)
(0.0161882 0.0373689 1.22931)
(0.0102664 0.0406291 1.25143)
(0.00351847 0.0423591 1.26272)
(-0.00351869 0.0423591 1.26272)
(-0.0102666 0.040629 1.25143)
(-0.0161885 0.0373689 1.22931)
(-0.0209282 0.0328989 1.19729)
(-0.0240859 0.0278286 1.15653)
(0.0289961 0.0333769 1.30099)
(0.0249742 0.0388788 1.3428)
(0.0191992 0.0436659 1.37534)
(0.0121182 0.0471286 1.39771)
(0.00414344 0.0489562 1.40909)
(-0.00414371 0.0489562 1.40909)
(-0.0121185 0.0471285 1.39771)
(-0.0191995 0.0436658 1.37533)
(-0.0249745 0.0388788 1.3428)
(-0.0289963 0.0333768 1.30099)
(0.0326009 0.0373434 1.42569)
(0.0278159 0.0427715 1.46714)
(0.0212406 0.0474177 1.4991)
(0.0133389 0.0507476 1.52095)
(0.00454924 0.052495 1.53203)
(-0.00454955 0.052495 1.53203)
(-0.0133392 0.0507476 1.52095)
(-0.0212409 0.0474177 1.4991)
(-0.0278162 0.0427715 1.46714)
(-0.0326011 0.0373434 1.42569)
(0.0346702 0.0394404 1.53136)
(0.0292858 0.0443005 1.57153)
(0.0221914 0.0483429 1.60213)
(0.0138548 0.0512117 1.62288)
(0.00471121 0.0527066 1.63334)
(-0.00471155 0.0527066 1.63334)
(-0.0138552 0.0512117 1.62288)
(-0.0221918 0.0483428 1.60213)
(-0.0292861 0.0443005 1.57153)
(-0.0346705 0.0394404 1.53136)
(0.0351864 0.0399702 1.61859)
(0.0293616 0.0433907 1.65762)
(0.0220023 0.0463521 1.68625)
(0.013636 0.0484242 1.70538)
(0.00461976 0.0494935 1.71495)
(-0.00462011 0.0494935 1.71495)
(-0.0136363 0.0484242 1.70538)
(-0.0220026 0.0463521 1.68625)
(-0.0293619 0.0433907 1.65762)
(-0.0351867 0.0399702 1.61859)
(7.74724e-05 0.000104895 0.126056)
(5.393e-05 0.000133115 0.132302)
(3.27858e-05 0.000149351 0.137347)
(1.99049e-05 0.000157255 0.140887)
(6.44181e-06 0.000160994 0.142713)
(-6.45541e-06 0.000160993 0.142713)
(-1.99186e-05 0.000157252 0.140887)
(-3.27998e-05 0.000149346 0.137347)
(-5.39433e-05 0.000133107 0.132302)
(-7.7485e-05 0.000104885 0.126056)
(0.00100011 0.00119573 0.365293)
(0.00085784 0.0014833 0.382334)
(0.000655188 0.00172487 0.396077)
(0.000418034 0.00189794 0.405708)
(0.000143432 0.00199037 0.410669)
(-0.000143476 0.00199037 0.410669)
(-0.000418078 0.00189793 0.405708)
(-0.000655232 0.00172486 0.396077)
(-0.000857881 0.00148328 0.382334)
(-0.00100015 0.0011957 0.365292)
(0.00275378 0.00324382 0.587774)
(0.00240281 0.00398988 0.613808)
(0.00186416 0.00464016 0.634721)
(0.00119209 0.00511696 0.649348)
(0.000410067 0.00537251 0.656871)
(-0.000410142 0.00537251 0.656871)
(-0.00119216 0.00511695 0.649348)
(-0.00186424 0.00464014 0.634721)
(-0.00240288 0.00398985 0.613808)
(-0.00275384 0.00324378 0.587774)
(0.0051571 0.00603642 0.792673)
(0.0045131 0.00735781 0.825838)
(0.00351268 0.00852151 0.852336)
(0.00224443 0.00937831 0.870819)
(0.000772038 0.00983711 0.880309)
(-0.000772146 0.00983711 0.880309)
(-0.00224454 0.00937829 0.870819)
(-0.00351279 0.00852149 0.852336)
(-0.0045132 0.00735778 0.825838)
(-0.00515719 0.00603637 0.792673)
(0.00789485 0.0091978 0.979441)
(0.00689356 0.0110943 1.01788)
(0.00535888 0.0127649 1.04839)
(0.00341604 0.0139924 1.06961)
(0.00117383 0.0146479 1.08048)
(-0.00117397 0.0146479 1.08048)
(-0.00341618 0.0139924 1.06961)
(-0.00535902 0.0127649 1.04839)
(-0.00689369 0.0110943 1.01788)
(-0.00789497 0.00919775 0.979441)
(0.0106473 0.0123494 1.14781)
(0.00925074 0.0147156 1.18975)
(0.00716602 0.0167886 1.22277)
(0.00455284 0.0183042 1.24565)
(0.00156195 0.0191104 1.25735)
(-0.00156212 0.0191104 1.25735)
(-0.00455301 0.0183042 1.24565)
(-0.00716619 0.0167886 1.22277)
(-0.00925089 0.0147156 1.18975)
(-0.0106475 0.0123494 1.14781)
(0.0131212 0.0151473 1.29776)
(0.0113224 0.0177961 1.34152)
(0.00872734 0.020094 1.37571)
(0.00552238 0.0217625 1.3993)
(0.00189076 0.0226458 1.41133)
(-0.00189097 0.0226458 1.41133)
(-0.00552258 0.0217625 1.3993)
(-0.00872753 0.0200939 1.37571)
(-0.0113226 0.017796 1.34152)
(-0.0131213 0.0151472 1.29776)
(0.0150707 0.0173019 1.42939)
(0.012899 0.0199947 1.47352)
(0.009883 0.0222984 1.50772)
(0.00622437 0.0239568 1.53121)
(0.00212604 0.0248297 1.54315)
(-0.00212627 0.0248297 1.54315)
(-0.0062246 0.0239568 1.53121)
(-0.00988322 0.0222984 1.50772)
(-0.0128992 0.0199946 1.47352)
(-0.0150709 0.0173018 1.42939)
(0.0163359 0.0186131 1.54279)
(0.0138525 0.0210983 1.58627)
(0.0105357 0.0231686 1.61961)
(0.00659756 0.0246436 1.64232)
(0.00224691 0.0254142 1.6538)
(-0.00224717 0.0254142 1.6538)
(-0.00659781 0.0246436 1.64232)
(-0.0105359 0.0231686 1.61961)
(-0.0138527 0.0210983 1.58627)
(-0.0163361 0.0186131 1.54279)
(0.0168599 0.019177 1.63785)
(0.0141235 0.0210054 1.6808)
(0.0106242 0.022574 1.71252)
(0.00660383 0.0236747 1.73381)
(0.00224064 0.0242439 1.74449)
(-0.00224091 0.0242439 1.74449)
(-0.00660409 0.0236747 1.73381)
(-0.0106245 0.022574 1.71251)
(-0.0141238 0.0210054 1.6808)
(-0.0168601 0.019177 1.63785)
(1.08904e-05 1.33449e-05 0.124629)
(7.28644e-06 1.84344e-05 0.130811)
(3.91878e-06 2.17865e-05 0.135801)
(2.91168e-06 2.36861e-05 0.139304)
(9.68733e-07 2.47857e-05 0.141111)
(-9.79074e-07 2.4785e-05 0.141111)
(-2.922e-06 2.36837e-05 0.139304)
(-3.9291e-06 2.17824e-05 0.135801)
(-7.29661e-06 1.84285e-05 0.130811)
(-1.08994e-05 1.33373e-05 0.124629)
(0.00033754 0.000394396 0.361262)
(0.000294508 0.000492616 0.378143)
(0.000227927 0.000578356 0.391749)
(0.000147062 0.000641658 0.401288)
(5.06996e-05 0.000676036 0.4062)
(-5.07323e-05 0.000676034 0.4062)
(-0.000147094 0.000641651 0.401288)
(-0.000227959 0.000578345 0.391749)
(-0.000294539 0.0004926 0.378143)
(-0.000337568 0.000394376 0.361262)
(0.0010114 0.00117703 0.581755)
(0.00089169 0.00145619 0.607613)
(0.000697682 0.00170458 0.628383)
(0.000449002 0.00189001 0.642916)
(0.000154904 0.00199034 0.650393)
(-0.000154961 0.00199034 0.650393)
(-0.000449058 0.00189 0.642916)
(-0.000697737 0.00170456 0.628383)
(-0.000891743 0.00145617 0.607613)
(-0.00101145 0.001177 0.581755)
(0.0019852 0.00230441 0.785591)
(0.00175211 0.00282533 0.818682)
(0.00137345 0.00329089 0.845134)
(0.000882109 0.00363854 0.863599)
(0.000304175 0.00382613 0.873085)
(-0.000304256 0.00382613 0.873085)
(-0.000882189 0.00363853 0.863599)
(-0.00137353 0.00329087 0.845134)
(-0.00175219 0.0028253 0.818682)
(-0.00198527 0.00230438 0.785591)
(0.00314397 0.0036387 0.972383)
(0.00276742 0.00441591 1.01097)
(0.00216597 0.00510932 1.04163)
(0.00138745 0.00562531 1.06298)
(0.000477893 0.00590281 1.07392)
(-0.000477998 0.00590281 1.07392)
(-0.00138755 0.0056253 1.06298)
(-0.00216607 0.0051093 1.04163)
(-0.00276752 0.00441587 1.01097)
(-0.00314405 0.00363866 0.972383)
(0.00435765 0.00502542 1.14188)
(0.00381689 0.0060267 1.18428)
(0.0029769 0.00691471 1.21773)
(0.00190054 0.00757184 1.24094)
(0.000653579 0.00792379 1.25282)
(-0.000653709 0.00792379 1.25282)
(-0.00190067 0.00757183 1.24094)
(-0.00297702 0.00691469 1.21773)
(-0.00381701 0.00602667 1.18428)
(-0.00435776 0.00502537 1.14188)
(0.0054958 0.00631112 1.29396)
(0.004782 0.00746364 1.33854)
(0.00371139 0.00847593 1.37346)
(0.00235993 0.00921964 1.39761)
(0.000809938 0.00961599 1.40994)
(-0.00081009 0.00961599 1.40994)
(-0.00236008 0.00921963 1.39761)
(-0.00371154 0.00847591 1.37346)
(-0.00478213 0.00746361 1.33854)
(-0.00549592 0.00631108 1.29396)
(0.00644014 0.00735622 1.42851)
(0.00555922 0.00855778 1.47384)
(0.00428866 0.00959883 1.50908)
(0.00271405 0.0103566 1.53335)
(0.000929217 0.0107579 1.5457)
(-0.00092939 0.0107579 1.5457)
(-0.00271422 0.0103565 1.53335)
(-0.00428882 0.00959882 1.50908)
(-0.00555937 0.00855775 1.47384)
(-0.00644028 0.00735619 1.42851)
(0.00710588 0.00805616 1.54536)
(0.0060765 0.00919257 1.59038)
(0.00465201 0.0101507 1.62504)
(0.00292643 0.0108396 1.64871)
(0.000998851 0.0112015 1.6607)
(-0.00099904 0.0112015 1.6607)
(-0.00292661 0.0108396 1.64871)
(-0.00465219 0.0101507 1.62504)
(-0.00607666 0.00919255 1.59038)
(-0.00710603 0.00805614 1.54536)
(0.00745139 0.00844176 1.64409)
(0.00628802 0.00930751 1.68893)
(0.00475844 0.010049 1.72217)
(0.00296981 0.0105725 1.74455)
(0.00100962 0.0108443 1.75579)
(-0.00100982 0.0108443 1.75579)
(-0.00297001 0.0105725 1.74455)
(-0.00475862 0.010049 1.72217)
(-0.00628819 0.0093075 1.68893)
(-0.00745154 0.00844175 1.64409)
(7.1807e-06 1.1589e-05 0.124272)
(2.80784e-06 1.51381e-05 0.13043)
(3.55319e-07 1.61407e-05 0.135394)
(-5.28009e-08 1.60974e-05 0.138879)
(-1.03006e-07 1.59648e-05 0.140676)
(9.53408e-08 1.59643e-05 0.140676)
(4.52249e-08 1.60956e-05 0.138879)
(-3.62742e-07 1.61377e-05 0.135394)
(-2.81526e-06 1.51338e-05 0.13043)
(-7.18702e-06 1.15836e-05 0.124272)
(0.000126788 0.000154613 0.360083)
(0.00010453 0.000193439 0.376891)
(7.80024e-05 0.000223778 0.390428)
(4.9355e-05 0.000245007 0.399916)
(1.68493e-05 0.00025626 0.404802)
(-1.68734e-05 0.000256258 0.404802)
(-4.93788e-05 0.000245002 0.399916)
(-7.80257e-05 0.000223769 0.390428)
(-0.000104553 0.000193427 0.376891)
(-0.000126808 0.000154598 0.360083)
(0.000382196 0.000453083 0.579853)
(0.00032924 0.000562335 0.605619)
(0.000254 0.000655102 0.626303)
(0.000162257 0.00072306 0.640774)
(5.57785e-05 0.000759527 0.648219)
(-5.58198e-05 0.000759525 0.648219)
(-0.000162298 0.000723052 0.640774)
(-0.00025404 0.000655089 0.626303)
(-0.000329279 0.000562317 0.605619)
(-0.000382229 0.000453062 0.579853)
(0.00076151 0.000892902 0.783244)
(0.00066452 0.00109962 0.816272)
(0.000517558 0.00127992 0.842665)
(0.000331382 0.0014135 0.86109)
(0.000114108 0.00148537 0.870556)
(-0.000114167 0.00148536 0.870556)
(-0.00033144 0.00141349 0.86109)
(-0.000517615 0.0012799 0.842665)
(-0.000664573 0.00109959 0.816272)
(-0.000761558 0.000892876 0.783243)
(0.00122755 0.00142964 0.969984)
(0.00107451 0.00174424 1.00859)
(0.000838732 0.00202111 1.03927)
(0.000536778 0.00222655 1.06063)
(0.000184822 0.00233698 1.07159)
(-0.000184899 0.00233697 1.07159)
(-0.000536853 0.00222654 1.06063)
(-0.000838805 0.00202109 1.03927)
(-0.00107458 0.00174422 1.00859)
(-0.00122761 0.00142961 0.969984)
(0.00173207 0.00200614 1.13988)
(0.00151365 0.00242015 1.18242)
(0.0011799 0.00278442 1.216)
(0.000753549 0.00305394 1.23931)
(0.000259204 0.00319838 1.25125)
(-0.000259298 0.00319838 1.25125)
(-0.000753641 0.00305392 1.23931)
(-0.00117999 0.0027844 1.216)
(-0.00151373 0.00242013 1.18242)
(-0.00173214 0.00200611 1.13988)
(0.00222162 0.00255951 1.29278)
(0.00193256 0.00304617 1.33767)
(0.00150106 0.00347171 1.37287)
(0.000955523 0.00378475 1.39722)
(0.000328139 0.0039518 1.40967)
(-0.000328249 0.0039518 1.40967)
(-0.000955631 0.00378474 1.39722)
(-0.00150116 0.00347169 1.37287)
(-0.00193266 0.00304615 1.33767)
(-0.00222171 0.00255948 1.29278)
(0.00264379 0.00302766 1.42854)
(0.00228454 0.00354552 1.47436)
(0.0017652 0.00399327 1.51002)
(0.00111883 0.00431979 1.5346)
(0.000383368 0.00449302 1.54712)
(-0.000383493 0.00449301 1.54712)
(-0.00111895 0.00431978 1.5346)
(-0.00176531 0.00399325 1.51002)
(-0.00228465 0.0035455 1.47436)
(-0.00264389 0.00302764 1.42854)
(0.00295754 0.00335972 1.54687)
(0.00253382 0.00385963 1.59256)
(0.0019438 0.00428106 1.62779)
(0.00122495 0.00458467 1.65187)
(0.000418474 0.00474438 1.66407)
(-0.000418612 0.00474438 1.66407)
(-0.00122508 0.00458467 1.65187)
(-0.00194392 0.00428105 1.62778)
(-0.00253394 0.00385962 1.59256)
(-0.00295765 0.0033597 1.54687)
(0.00313909 0.00356222 1.64722)
(0.00265459 0.00395358 1.69291)
(0.00201351 0.00428725 1.72683)
(0.00125898 0.00452326 1.7497)
(0.000428391 0.00464594 1.76119)
(-0.000428535 0.00464594 1.76119)
(-0.00125912 0.00452326 1.7497)
(-0.00201365 0.00428724 1.72683)
(-0.00265472 0.00395358 1.69291)
(-0.00313921 0.0035622 1.64722)
(-6.4618e-07 -1.21975e-07 0.124113)
(-1.57163e-06 2.72847e-07 0.130262)
(-1.70866e-06 6.98827e-08 0.13522)
(-1.11899e-06 -2.5287e-07 0.1387)
(-4.04926e-07 -4.37475e-07 0.140494)
(3.99397e-07 -4.37898e-07 0.140494)
(1.11357e-06 -2.54145e-07 0.1387)
(1.70342e-06 6.78047e-08 0.13522)
(1.5665e-06 2.69861e-07 0.130262)
(6.41903e-07 -1.25621e-07 0.124113)
(3.40108e-05 4.10163e-05 0.359569)
(2.77754e-05 5.22597e-05 0.376352)
(2.06905e-05 6.10946e-05 0.389865)
(1.31823e-05 6.74166e-05 0.399337)
(4.50638e-06 7.08168e-05 0.404215)
(-4.52371e-06 7.08156e-05 0.404215)
(-1.31992e-05 6.74131e-05 0.399337)
(-2.07069e-05 6.10888e-05 0.389865)
(-2.77913e-05 5.22515e-05 0.376352)
(-3.40241e-05 4.10062e-05 0.359569)
(0.0001186 0.000139357 0.579014)
(0.000102502 0.000174999 0.604744)
(7.94854e-05 0.0002056 0.625395)
(5.10426e-05 0.000228391 0.639845)
(1.75838e-05 0.000240731 0.647278)
(-1.76134e-05 0.000240729 0.647278)
(-5.10716e-05 0.000228386 0.639845)
(-7.95133e-05 0.000205591 0.625395)
(-0.000102529 0.000174987 0.604743)
(-0.000118623 0.000139342 0.579014)
(0.000252782 0.000294261 0.782173)
(0.000221807 0.000365896 0.815171)
(0.000173779 0.000429026 0.841539)
(0.000111798 0.00047644 0.859948)
(3.85791e-05 0.000502136 0.869406)
(-3.86212e-05 0.000502133 0.869406)
(-0.000111839 0.000476433 0.859948)
(-0.000173819 0.000429014 0.841539)
(-0.000221845 0.00036588 0.815171)
(-0.000252815 0.000294243 0.782173)
(0.000425369 0.000492252 0.968827)
(0.000374739 0.000605803 1.00743)
(0.00029433 0.000706723 1.03811)
(0.000189247 0.000782536 1.05947)
(6.53029e-05 0.000823556 1.07043)
(-6.53575e-05 0.000823553 1.07043)
(-0.0001893 0.000782528 1.05947)
(-0.000294381 0.000706711 1.03811)
(-0.000374788 0.000605785 1.00743)
(-0.000425413 0.000492231 0.968826)
(0.00061936 0.000713144 1.13881)
(0.000545045 0.000867298 1.18139)
(0.000427585 0.00100427 1.21502)
(0.000274352 0.00110678 1.23837)
(9.45792e-05 0.00116207 1.25033)
(-9.4646e-05 0.00116206 1.25033)
(-0.000274418 0.00110677 1.23837)
(-0.000427648 0.00100425 1.21502)
(-0.000545104 0.000867279 1.18139)
(-0.000619413 0.000713122 1.13881)
(0.000814269 0.000932813 1.29198)
(0.000713557 0.0011187 1.33698)
(0.000557824 0.00128286 1.37228)
(0.000356741 0.00140493 1.39671)
(0.000122779 0.00147047 1.4092)
(-0.000122858 0.00147046 1.4092)
(-0.000356817 0.00140492 1.39671)
(-0.000557897 0.00128285 1.37228)
(-0.000713626 0.00111868 1.33698)
(-0.000814331 0.000932792 1.29198)
(0.000988809 0.00112607 1.42817)
(0.000860968 0.00132829 1.47417)
(0.000669512 0.00150488 1.51001)
(0.000426274 0.00163493 1.53471)
(0.000146375 0.00170431 1.5473)
(-0.000146464 0.0017043 1.5473)
(-0.000426361 0.00163493 1.53471)
(-0.000669596 0.00150487 1.51)
(-0.000861046 0.00132827 1.47417)
(-0.000988879 0.00112605 1.42817)
(0.0011254 0.00127138 1.54707)
(0.000971414 0.0014707 1.59302)
(0.00074974 0.0016402 1.62847)
(0.000474465 0.00176328 1.65273)
(0.00016241 0.00182832 1.66502)
(-0.000162507 0.00182832 1.66502)
(-0.00047456 0.00176328 1.65273)
(-0.000749831 0.00164019 1.62847)
(-0.000971501 0.00147068 1.59302)
(-0.00112547 0.00127137 1.54707)
(0.00121249 0.00137012 1.64807)
(0.00103197 0.00153054 1.6941)
(0.000787041 0.00166689 1.7283)
(0.000493935 0.00176382 1.75137)
(0.000168358 0.00181437 1.76297)
(-0.000168462 0.00181437 1.76297)
(-0.000494037 0.00176382 1.75137)
(-0.000787139 0.00166689 1.7283)
(-0.00103206 0.00153053 1.6941)
(-0.00121257 0.00137011 1.64806)
(-5.94507e-10 7.18525e-07 0.124091)
(-8.02748e-07 1.07499e-06 0.130238)
(-9.98617e-07 9.13929e-07 0.135193)
(-7.30956e-07 6.36736e-07 0.138671)
(-2.72614e-07 4.58266e-07 0.140464)
(2.68766e-07 4.57969e-07 0.140464)
(7.27198e-07 6.35854e-07 0.138671)
(9.9505e-07 9.12482e-07 0.135193)
(7.994e-07 1.073e-06 0.130238)
(-2.22806e-09 7.16191e-07 0.124091)
(9.45133e-06 1.26087e-05 0.359458)
(6.47759e-06 1.62937e-05 0.376231)
(4.18619e-06 1.85626e-05 0.389733)
(2.4552e-06 1.99539e-05 0.399197)
(7.99115e-07 2.06463e-05 0.404071)
(-8.11159e-07 2.06455e-05 0.404071)
(-2.46697e-06 1.99514e-05 0.399197)
(-4.19739e-06 1.85586e-05 0.389733)
(-6.48805e-06 1.62882e-05 0.376231)