/*--------------------------------*- C++ -*----------------------------------*\
| =========                 |                                                 |
| \\      /  F ield         | OpenFOAM: The Open Source CFD Toolbox           |
|  \\    /   O peration     | Version:  2106                                  |
|   \\  /    A nd           | Website:  www.openfoam.com                      |
|    \\/     M anipulation  |                                                 |
\*---------------------------------------------------------------------------*/
FoamFile
{
    version     2.0;
    format      ascii;
    arch        "LSB;label=32;scalar=64";
    class       volVectorField;
    location    "0.51";
    object      U;
}
// * * * * * * * * * * * * * * * * * * * * * * * * * * * * * * * * * * * * * //

dimensions      [0 1 -1 0 0 0 0];

internalField   nonuniform List<vector> 
10000
(
(0.0625649 0.0737227 0.345106)
(0.0533603 0.0838432 0.359586)
(0.0398503 0.0929948 0.37095)
(0.0247216 0.0993773 0.378799)
(0.00837805 0.102677 0.382787)
(-0.00837806 0.102677 0.382787)
(-0.0247216 0.0993773 0.378799)
(-0.0398503 0.0929948 0.37095)
(-0.0533603 0.0838432 0.359586)
(-0.0625649 0.0737227 0.345106)
(0.172062 0.204133 0.727853)
(0.145243 0.231376 0.747502)
(0.108432 0.255336 0.762142)
(0.0670872 0.271923 0.772039)
(0.0227088 0.280477 0.776988)
(-0.0227089 0.280477 0.776988)
(-0.0670872 0.271923 0.772039)
(-0.108432 0.255336 0.762142)
(-0.145243 0.231376 0.747502)
(-0.172062 0.204133 0.727853)
(0.222629 0.264351 0.923771)
(0.185822 0.296058 0.939598)
(0.137841 0.323744 0.950662)
(0.0848606 0.342685 0.957965)
(0.0286544 0.35239 0.961547)
(-0.0286545 0.35239 0.961547)
(-0.0848607 0.342685 0.957965)
(-0.137841 0.323744 0.950662)
(-0.185822 0.296058 0.939598)
(-0.222629 0.264351 0.923771)
(0.237634 0.281715 1.02289)
(0.196402 0.311587 1.0334)
(0.144788 0.337724 1.04006)
(0.0887245 0.355403 1.04433)
(0.0298912 0.364403 1.04636)
(-0.0298913 0.364403 1.04636)
(-0.0887246 0.355403 1.04433)
(-0.144788 0.337724 1.04006)
(-0.196402 0.311587 1.0334)
(-0.237634 0.281715 1.02289)
(0.235676 0.278898 1.07125)
(0.193182 0.304884 1.0772)
(0.141664 0.327759 1.08033)
(0.0864612 0.343097 1.08221)
(0.0290725 0.350858 1.08305)
(-0.0290726 0.350858 1.08305)
(-0.0864614 0.343097 1.08221)
(-0.141664 0.327759 1.08033)
(-0.193182 0.304884 1.0772)
(-0.235676 0.278898 1.07125)
(0.224645 0.265361 1.09233)
(0.182745 0.286749 1.09491)
(0.133374 0.305728 1.09556)
(0.0811004 0.31838 1.0958)
(0.0272218 0.324744 1.09585)
(-0.027222 0.324744 1.09585)
(-0.0811006 0.31838 1.0958)
(-0.133374 0.305728 1.09556)
(-0.182745 0.286749 1.09491)
(-0.224645 0.265361 1.09233)
(0.208285 0.245408 1.09893)
(0.16815 0.261961 1.09921)
(0.122171 0.276794 1.09829)
(0.0740271 0.286663 1.09753)
(0.0248058 0.291606 1.0971)
(-0.024806 0.291606 1.0971)
(-0.0740272 0.286663 1.09753)
(-0.122171 0.276794 1.09829)
(-0.168151 0.26196 1.09921)
(-0.208285 0.245408 1.09893)
(0.188928 0.221769 1.09824)
(0.151346 0.23353 1.09706)
(0.109496 0.244208 1.09526)
(0.0661303 0.251347 1.09394)
(0.0221245 0.254923 1.09326)
(-0.0221248 0.254923 1.09326)
(-0.0661305 0.251347 1.09394)
(-0.109496 0.244208 1.09526)
(-0.151346 0.23353 1.09706)
(-0.188928 0.221768 1.09824)
(0.16811 0.196232 1.09425)
(0.133706 0.203392 1.09218)
(0.0963405 0.210044 1.08996)
(0.0580026 0.214621 1.08841)
(0.0193757 0.216933 1.08762)
(-0.019376 0.216933 1.08762)
(-0.0580029 0.214621 1.08841)
(-0.0963407 0.210044 1.08996)
(-0.133706 0.203392 1.09218)
(-0.16811 0.196232 1.09425)
(0.146995 0.17045 1.08919)
(0.116432 0.171526 1.08666)
(0.0833126 0.174784 1.08429)
(0.0499739 0.177159 1.0827)
(0.0166641 0.17838 1.0819)
(-0.0166644 0.17838 1.0819)
(-0.0499742 0.177159 1.0827)
(-0.0833129 0.174784 1.08429)
(-0.116432 0.171526 1.08666)
(-0.146995 0.17045 1.08919)
(0.0111945 0.0142998 0.266555)
(0.00940484 0.0175903 0.278819)
(0.00710144 0.0202335 0.288861)
(0.00449537 0.0220456 0.295852)
(0.00153808 0.0229896 0.29943)
(-0.00153811 0.0229896 0.29943)
(-0.0044954 0.0220456 0.295852)
(-0.00710147 0.0202335 0.288861)
(-0.00940487 0.0175903 0.278819)
(-0.0111945 0.0142998 0.266555)
(0.0544009 0.0658235 0.629611)
(0.046713 0.0791938 0.651561)
(0.0357503 0.0906502 0.669164)
(0.0226013 0.0987677 0.681269)
(0.00773429 0.103029 0.687414)
(-0.00773438 0.103029 0.687414)
(-0.0226014 0.0987677 0.681269)
(-0.0357504 0.0906502 0.669164)
(-0.0467131 0.0791937 0.651561)
(-0.054401 0.0658235 0.629611)
(0.0977399 0.116746 0.876632)
(0.0833876 0.138071 0.90046)
(0.0634816 0.156373 0.91915)
(0.0398924 0.169288 0.931849)
(0.0136109 0.176033 0.938243)
(-0.013611 0.176033 0.938243)
(-0.0398926 0.169288 0.931849)
(-0.0634818 0.156373 0.91915)
(-0.0833877 0.138071 0.90046)
(-0.09774 0.116746 0.876632)
(0.133781 0.15862 1.04444)
(0.113167 0.18473 1.06644)
(0.0855975 0.207029 1.08328)
(0.053485 0.222654 1.09458)
(0.0181967 0.230768 1.10023)
(-0.0181969 0.230768 1.10023)
(-0.0534852 0.222654 1.09458)
(-0.0855976 0.207029 1.08328)
(-0.113167 0.18473 1.06644)
(-0.133781 0.15862 1.04444)
(0.159568 0.188119 1.1575)
(0.133823 0.215954 1.17612)
(0.100586 0.239567 1.18998)
(0.0625269 0.255992 1.19917)
(0.0212182 0.264475 1.20372)
(-0.0212185 0.264475 1.20372)
(-0.0625271 0.255992 1.19917)
(-0.100587 0.239567 1.18998)
(-0.133823 0.215954 1.17612)
(-0.159568 0.188119 1.1575)
(0.175147 0.205421 1.23253)
(0.145645 0.232495 1.24735)
(0.108812 0.255262 1.25805)
(0.0673164 0.270992 1.26504)
(0.0227891 0.279073 1.26847)
(-0.0227894 0.279073 1.26847)
(-0.0673167 0.270992 1.26504)
(-0.108812 0.255262 1.25805)
(-0.145646 0.232494 1.24735)
(-0.175147 0.205421 1.23253)
(0.181585 0.211874 1.28136)
(0.149707 0.23629 1.29257)
(0.11119 0.256581 1.3004)
(0.0684766 0.270515 1.30543)
(0.0231297 0.27764 1.30787)
(-0.0231301 0.27764 1.30787)
(-0.0684769 0.270515 1.30543)
(-0.11119 0.256581 1.3004)
(-0.149707 0.23629 1.29257)
(-0.181585 0.211874 1.28136)
(0.180226 0.209116 1.31233)
(0.147299 0.229499 1.32043)
(0.108779 0.246163 1.32587)
(0.0667063 0.257552 1.32929)
(0.0224838 0.263356 1.33093)
(-0.0224843 0.263356 1.33093)
(-0.0667068 0.257552 1.32929)
(-0.10878 0.246163 1.32587)
(-0.147299 0.229499 1.32043)
(-0.180226 0.209116 1.31233)
(0.172534 0.198827 1.33128)
(0.139842 0.214249 1.33688)
(0.102688 0.2265 1.34047)
(0.0627015 0.234891 1.34266)
(0.0210891 0.239164 1.34368)
(-0.0210896 0.239164 1.34368)
(-0.062702 0.234891 1.34266)
(-0.102688 0.2265 1.34047)
(-0.139843 0.214249 1.33688)
(-0.172534 0.198826 1.33128)
(0.160078 0.183811 1.34233)
(0.128887 0.191694 1.34608)
(0.0938682 0.199191 1.34829)
(0.0570278 0.204362 1.34957)
(0.0191338 0.206993 1.35014)
(-0.0191343 0.206992 1.35014)
(-0.0570283 0.204362 1.34957)
(-0.0938687 0.199191 1.34829)
(-0.128887 0.191694 1.34608)
(-0.160079 0.183811 1.34233)
(0.00112032 0.00125106 0.15772)
(0.00113163 0.00159771 0.166023)
(0.000882142 0.00200548 0.172957)
(0.000590462 0.00230752 0.177865)
(0.000205744 0.00247488 0.180405)
(-0.000205774 0.00247488 0.180405)
(-0.000590491 0.00230751 0.177865)
(-0.00088217 0.00200547 0.172957)
(-0.00113166 0.00159769 0.166023)
(-0.00112034 0.00125104 0.15772)
(0.017994 0.0208801 0.44187)
(0.0161821 0.0254733 0.462083)
(0.0126646 0.0297959 0.478683)
(0.00813378 0.0329885 0.490333)
(0.00280269 0.0347035 0.49633)
(-0.00280279 0.0347035 0.49633)
(-0.00813387 0.0329885 0.490333)
(-0.0126647 0.0297959 0.478683)
(-0.0161822 0.0254733 0.462083)
(-0.0179941 0.02088 0.44187)
(0.0410063 0.0477314 0.685568)
(0.0362161 0.0573435 0.713158)
(0.0281351 0.0661112 0.735453)
(0.0179219 0.0725219 0.750971)
(0.00615327 0.0759358 0.758918)
(-0.00615343 0.0759358 0.758918)
(-0.017922 0.0725219 0.750971)
(-0.0281352 0.0661111 0.735453)
(-0.0362162 0.0573434 0.713158)
(-0.0410064 0.0477313 0.685568)
(0.0658219 0.0766783 0.888264)
(0.05737 0.0908264 0.919452)
(0.0442393 0.103485 0.944235)
(0.0279996 0.112642 0.961339)
(0.00958418 0.117484 0.970053)
(-0.0095844 0.117484 0.970053)
(-0.0279998 0.112642 0.961339)
(-0.0442395 0.103485 0.944235)
(-0.0573701 0.0908263 0.919452)
(-0.065822 0.0766782 0.888264)
(0.0879748 0.102369 1.05338)
(0.0758068 0.119584 1.08537)
(0.0580409 0.134759 1.11036)
(0.036528 0.145631 1.12746)
(0.0124694 0.151341 1.13612)
(-0.0124697 0.151341 1.13612)
(-0.0365283 0.145631 1.12746)
(-0.0580412 0.134759 1.11036)
(-0.075807 0.119584 1.08537)
(-0.087975 0.102369 1.05338)
(0.105229 0.122131 1.18579)
(0.0897222 0.140664 1.2167)
(0.0682242 0.156775 1.24043)
(0.0427129 0.168217 1.25653)
(0.0145437 0.17419 1.26465)
(-0.014544 0.17419 1.26465)
(-0.0427133 0.168217 1.25653)
(-0.0682246 0.156775 1.24043)
(-0.0897225 0.140663 1.2167)
(-0.105229 0.122131 1.18579)
(0.116741 0.135005 1.29065)
(0.0985258 0.153172 1.31931)
(0.0744148 0.168731 1.34095)
(0.0463562 0.179691 1.35552)
(0.0157456 0.185381 1.36283)
(-0.015746 0.185381 1.36283)
(-0.0463567 0.179691 1.35552)
(-0.0744152 0.168731 1.34095)
(-0.0985261 0.153172 1.31931)
(-0.116742 0.135005 1.29065)
(0.122394 0.140889 1.37272)
(0.102256 0.157219 1.39854)
(0.0767192 0.170958 1.41774)
(0.0475591 0.180563 1.43056)
(0.0161152 0.185527 1.43697)
(-0.0161157 0.185527 1.43697)
(-0.0475596 0.180563 1.43056)
(-0.0767196 0.170958 1.41774)
(-0.102256 0.157219 1.39854)
(-0.122394 0.140888 1.37272)
(0.122591 0.140225 1.43612)
(0.101411 0.153547 1.45898)
(0.0755566 0.164428 1.47572)
(0.0465974 0.172003 1.4868)
(0.0157489 0.175901 1.49229)
(-0.0157494 0.175901 1.49229)
(-0.046598 0.172003 1.4868)
(-0.0755571 0.164428 1.47572)
(-0.101411 0.153547 1.45898)
(-0.122592 0.140225 1.43612)
(0.118155 0.134827 1.48422)
(0.096788 0.142821 1.50462)
(0.0714027 0.150054 1.51901)
(0.0437626 0.155064 1.52838)
(0.0147458 0.157628 1.53299)
(-0.0147464 0.157628 1.53299)
(-0.0437632 0.155064 1.52838)
(-0.0714032 0.150054 1.51901)
(-0.0967884 0.142821 1.50462)
(-0.118155 0.134827 1.48421)
(0.000711653 0.000934858 0.13804)
(0.000556086 0.00117222 0.144855)
(0.000380717 0.00134048 0.150403)
(0.000236029 0.00144003 0.154297)
(7.9021e-05 0.00148983 0.156307)
(-7.9048e-05 0.00148983 0.156307)
(-0.000236055 0.00144002 0.154297)
(-0.000380741 0.00134047 0.150403)
(-0.00055611 0.0011722 0.144854)
(-0.000711672 0.000934842 0.13804)
(0.00701632 0.00839037 0.39581)
(0.00609213 0.0103419 0.413893)
(0.00468439 0.0120305 0.428531)
(0.00298843 0.0132425 0.438776)
(0.00102629 0.0138873 0.444048)
(-0.00102637 0.0138873 0.444048)
(-0.00298852 0.0132425 0.438776)
(-0.00468447 0.0120304 0.428531)
(-0.0060922 0.0103419 0.413893)
(-0.00701638 0.00839033 0.39581)
(0.0172012 0.0203118 0.629139)
(0.0150043 0.0247303 0.655829)
(0.0116114 0.0286077 0.677266)
(0.00739707 0.0314225 0.692207)
(0.00254021 0.0329197 0.699875)
(-0.00254035 0.0329197 0.699875)
(-0.00739721 0.0314225 0.692207)
(-0.0116116 0.0286077 0.677266)
(-0.0150044 0.0247302 0.655828)
(-0.0172013 0.0203117 0.629139)
(0.0295024 0.03464 0.836091)
(0.0256503 0.0416699 0.868692)
(0.0198242 0.0478383 0.894631)
(0.0125889 0.0523115 0.91262)
(0.00431703 0.0546836 0.921823)
(-0.00431724 0.0546836 0.921823)
(-0.0125891 0.0523115 0.912619)
(-0.0198244 0.0478382 0.894631)
(-0.0256505 0.0416698 0.868692)
(-0.0295025 0.0346399 0.83609)
(0.0418751 0.0489479 1.0166)
(0.0361825 0.0581368 1.05268)
(0.0278515 0.0661538 1.08108)
(0.0176163 0.0719385 1.10067)
(0.00602954 0.074993 1.11066)
(-0.00602982 0.074993 1.11066)
(-0.0176165 0.0719385 1.10067)
(-0.0278517 0.0661538 1.08108)
(-0.0361828 0.0581368 1.05268)
(-0.0418753 0.0489478 1.0166)
(0.0528351 0.0614858 1.17182)
(0.0453054 0.0720367 1.20934)
(0.0346894 0.0811558 1.23854)
(0.0218451 0.0876921 1.25857)
(0.00746088 0.0911267 1.26875)
(-0.00746122 0.0911267 1.26875)
(-0.0218455 0.087692 1.25857)
(-0.0346897 0.0811558 1.23854)
(-0.0453056 0.0720366 1.20934)
(-0.0528353 0.0614857 1.17182)
(0.0614035 0.0711216 1.30355)
(0.0522028 0.0820845 1.34089)
(0.0397308 0.0914391 1.36962)
(0.0249037 0.0980942 1.38922)
(0.00848594 0.101574 1.39915)
(-0.00848634 0.101573 1.39915)
(-0.0249041 0.0980942 1.38922)
(-0.0397312 0.0914391 1.36962)
(-0.0522031 0.0820845 1.34089)
(-0.0614038 0.0711215 1.30355)
(0.0669956 0.0771813 1.41384)
(0.0564334 0.0875878 1.44981)
(0.0426744 0.0963218 1.4772)
(0.0266191 0.102485 1.49577)
(0.00904842 0.10569 1.50514)
(-0.00904888 0.10569 1.50514)
(-0.0266196 0.102485 1.49577)
(-0.0426748 0.0963217 1.4772)
(-0.0564338 0.0875877 1.44981)
(-0.066996 0.0771812 1.41384)
(0.0694213 0.0794081 1.50467)
(0.0579188 0.0883855 1.53861)
(0.0434863 0.0957087 1.56413)
(0.0269792 0.100839 1.58129)
(0.00914584 0.103493 1.5899)
(-0.00914635 0.103493 1.5899)
(-0.0269797 0.100839 1.58129)
(-0.0434868 0.0957087 1.56413)
(-0.0579192 0.0883854 1.53861)
(-0.0694216 0.079408 1.50467)
(0.068865 0.0785884 1.57777)
(0.0568533 0.0845462 1.60994)
(0.0422524 0.0897252 1.63324)
(0.0260396 0.0933196 1.64868)
(0.00879808 0.0951644 1.65637)
(-0.00879862 0.0951644 1.65637)
(-0.0260401 0.0933196 1.64868)
(-0.0422529 0.0897252 1.63323)
(-0.0568537 0.0845462 1.60994)
(-0.0688654 0.0785883 1.57777)
(0.000129023 0.000140972 0.127171)
(0.000119601 0.0001849 0.133523)
(8.83373e-05 0.000229991 0.138686)
(6.04186e-05 0.000261592 0.142316)
(2.08598e-05 0.000279502 0.14419)
(-2.08823e-05 0.0002795 0.14419)
(-6.04405e-05 0.000261587 0.142316)
(-8.83582e-05 0.000229983 0.138686)
(-0.000119621 0.000184888 0.133523)
(-0.00012904 0.000140959 0.127171)
(0.00248982 0.00287989 0.368767)
(0.00222704 0.00357043 0.386039)
(0.00174427 0.00420661 0.400031)
(0.00112727 0.00467991 0.409848)
(0.000389216 0.0049368 0.414908)
(-0.000389289 0.0049368 0.414908)
(-0.00112734 0.00467989 0.409848)
(-0.00174434 0.00420658 0.400031)
(-0.0022271 0.0035704 0.386039)
(-0.00248987 0.00287985 0.368766)
(0.00678204 0.00786797 0.592696)
(0.00602527 0.00964535 0.618904)
(0.00472245 0.0112596 0.64002)
(0.00303463 0.0124605 0.654794)
(0.00104622 0.0131077 0.662394)
(-0.00104634 0.0131077 0.662394)
(-0.00303475 0.0124605 0.654794)
(-0.00472256 0.0112596 0.640019)
(-0.00602537 0.0096453 0.618904)
(-0.00678213 0.00786792 0.592696)
(0.0124446 0.01444 0.797426)
(0.0109833 0.0175084 0.830492)
(0.00858331 0.0202691 0.856948)
(0.00549213 0.0223123 0.875395)
(0.00189018 0.023408 0.884864)
(-0.00189036 0.023408 0.884864)
(-0.0054923 0.0223123 0.875395)
(-0.00858347 0.020269 0.856948)
(-0.0109835 0.0175083 0.830492)
(-0.0124448 0.0144399 0.797426)
(0.0186078 0.0215567 0.982197)
(0.0163036 0.0258292 1.02009)
(0.0126839 0.0296374 1.05016)
(0.00808165 0.0324372 1.07104)
(0.00277598 0.0339311 1.08174)
(-0.00277621 0.0339311 1.08174)
(-0.00808188 0.0324372 1.07104)
(-0.0126841 0.0296374 1.05016)
(-0.0163038 0.0258291 1.02009)
(-0.018608 0.0215567 0.982197)
(0.0245077 0.0283118 1.14687)
(0.021302 0.0334819 1.1877)
(0.0164826 0.0380409 1.21982)
(0.0104555 0.0413674 1.24202)
(0.00358368 0.0431332 1.25336)
(-0.00358397 0.0431332 1.25336)
(-0.0104557 0.0413673 1.24202)
(-0.0164829 0.0380408 1.21982)
(-0.0213023 0.0334819 1.1877)
(-0.024508 0.0283117 1.14687)
(0.029535 0.0339911 1.29176)
(0.0254486 0.0396114 1.33385)
(0.0195706 0.0445027 1.36664)
(0.0123559 0.0480427 1.38922)
(0.00422523 0.0499117 1.40072)
(-0.00422557 0.0499117 1.40072)
(-0.0123562 0.0480427 1.38922)
(-0.0195709 0.0445027 1.36664)
(-0.0254489 0.0396114 1.33385)
(-0.0295352 0.0339911 1.29176)
(0.0332418 0.0380703 1.41741)
(0.0283752 0.0436255 1.45936)
(0.0216755 0.0483821 1.49175)
(0.0136158 0.051793 1.51394)
(0.00464426 0.0535834 1.52519)
(-0.00464466 0.0535834 1.52519)
(-0.0136161 0.0517929 1.51394)
(-0.0216759 0.0483821 1.49175)
(-0.0283755 0.0436254 1.45936)
(-0.0332421 0.0380703 1.41741)
(0.0353883 0.0402492 1.52443)
(0.0299055 0.0452335 1.5653)
(0.022669 0.0493804 1.5965)
(0.0141566 0.0523248 1.61769)
(0.00481444 0.0538593 1.62838)
(-0.00481487 0.0538593 1.62838)
(-0.0141571 0.0523248 1.61769)
(-0.0226694 0.0493804 1.5965)
(-0.0299059 0.0452335 1.5653)
(-0.0353886 0.0402492 1.52443)
(0.0359493 0.040833 1.61326)
(0.0300093 0.0443509 1.65319)
(0.0224947 0.0473949 1.68253)
(0.0139442 0.0495255 1.70217)
(0.0047247 0.0506249 1.712)
(-0.00472516 0.0506249 1.712)
(-0.0139447 0.0495255 1.70217)
(-0.0224951 0.0473949 1.68253)
(-0.0300097 0.0443509 1.65319)
(-0.0359497 0.040833 1.61326)
(7.85878e-05 0.000106203 0.124252)
(5.48842e-05 0.00013475 0.130408)
(3.35317e-05 0.000151234 0.135381)
(2.04496e-05 0.000159333 0.138871)
(6.62872e-06 0.00016319 0.14067)
(-6.6464e-06 0.000163189 0.14067)
(-2.04671e-05 0.000159329 0.138871)
(-3.35481e-05 0.000151228 0.135381)
(-5.48998e-05 0.000134741 0.130408)
(-7.86013e-05 0.000106192 0.124252)
(0.00102287 0.00122203 0.360404)
(0.000878148 0.00151583 0.377238)
(0.000671259 0.00176292 0.390815)
(0.000428527 0.00194017 0.400332)
(0.000147058 0.00203492 0.405234)
(-0.000147116 0.00203492 0.405234)
(-0.000428583 0.00194016 0.400332)
(-0.000671312 0.0017629 0.390815)
(-0.000878197 0.00151581 0.377238)
(-0.00102291 0.001222 0.360404)
(0.00281887 0.00331888 0.58048)
(0.00246103 0.0040824 0.606263)
(0.00191029 0.00474834 0.626985)
(0.001222 0.00523699 0.641481)
(0.000420413 0.00549903 0.648939)
(-0.000420513 0.00549903 0.648939)
(-0.00122209 0.00523697 0.641481)
(-0.00191038 0.00474831 0.626985)
(-0.00246112 0.00408236 0.606263)
(-0.00281895 0.00331883 0.580479)
(0.00528307 0.00618136 0.783717)
(0.00462565 0.00753558 0.816673)
(0.00360178 0.00872879 0.843023)
(0.00230203 0.00960787 0.86141)
(0.000791953 0.0100788 0.870854)
(-0.000792096 0.0100788 0.870854)
(-0.00230217 0.00960785 0.86141)
(-0.00360191 0.00872875 0.843022)
(-0.00462577 0.00753553 0.816673)
(-0.00528317 0.0061813 0.783717)
(0.00809447 0.00942685 0.969592)
(0.00707136 0.0113732 1.00794)
(0.00549934 0.0130886 1.03841)
(0.00350659 0.0143499 1.05961)
(0.00120511 0.0150236 1.07048)
(-0.00120529 0.0150236 1.07048)
(-0.00350678 0.0143498 1.05961)
(-0.00549951 0.0130886 1.03841)
(-0.00707151 0.0113732 1.00794)
(-0.0080946 0.00942679 0.969592)
(0.0109264 0.0126686 1.13782)
(0.0094981 0.0151007 1.17984)
(0.00736075 0.0172325 1.21299)
(0.00467798 0.0187922 1.23597)
(0.00160511 0.0196221 1.24773)
(-0.00160534 0.0196221 1.24773)
(-0.0046782 0.0187921 1.23597)
(-0.00736096 0.0172325 1.21299)
(-0.00949829 0.0151006 1.17984)
(-0.0109266 0.0126685 1.13782)
(0.0134778 0.0155535 1.2883)
(0.0116365 0.0182804 1.33238)
(0.00897335 0.0206474 1.36687)
(0.00567983 0.0223673 1.3907)
(0.00194495 0.0232781 1.40287)
(-0.00194523 0.0232781 1.40287)
(-0.0056801 0.0223672 1.3907)
(-0.0089736 0.0206474 1.36687)
(-0.0116367 0.0182804 1.33237)
(-0.013478 0.0155535 1.2883)
(0.0154953 0.017783 1.42104)
(0.0132697 0.0205598 1.46573)
(0.0101715 0.0229369 1.50044)
(0.00640805 0.0246491 1.5243)
(0.00218909 0.0255507 1.53645)
(-0.00218941 0.0255507 1.53645)
(-0.00640836 0.0246491 1.5243)
(-0.0101718 0.0229369 1.50044)
(-0.01327 0.0205598 1.46573)
(-0.0154955 0.017783 1.42104)
(0.0168121 0.019149 1.53598)
(0.0142638 0.0217165 1.58026)
(0.0108529 0.0238563 1.61428)
(0.00679816 0.0253816 1.6375)
(0.00231553 0.0261788 1.64924)
(-0.00231587 0.0261788 1.64924)
(-0.00679849 0.0253816 1.6375)
(-0.0108532 0.0238563 1.61428)
(-0.014264 0.0217164 1.58026)
(-0.0168123 0.0191489 1.53597)
(0.0173666 0.0197494 1.63287)
(0.0145542 0.0216426 1.67684)
(0.0109519 0.0232664 1.70937)
(0.00680913 0.0244061 1.73124)
(0.00231054 0.0249956 1.74223)
(-0.00231091 0.0249956 1.74223)
(-0.00680948 0.0244061 1.73124)
(-0.0109522 0.0232664 1.70937)
(-0.0145545 0.0216426 1.67684)
(-0.0173669 0.0197494 1.63287)
(1.15894e-05 1.42574e-05 0.122787)
(7.79747e-06 1.95811e-05 0.128878)
(4.27693e-06 2.30637e-05 0.133793)
(3.16494e-06 2.50445e-05 0.137245)
(1.05558e-06 2.61935e-05 0.139024)
(-1.06898e-06 2.61925e-05 0.139024)
(-3.17806e-06 2.50414e-05 0.137245)
(-4.28949e-06 2.30588e-05 0.133793)
(-7.80944e-06 1.95742e-05 0.128878)
(-1.15995e-05 1.42489e-05 0.122787)
(0.000350239 0.000409289 0.356263)
(0.000305627 0.000511065 0.37293)
(0.000236621 0.000599839 0.386366)
(0.000152711 0.00066541 0.395787)
(5.26512e-05 0.000701034 0.40064)
(-5.26948e-05 0.000701031 0.40064)
(-0.000152753 0.000665402 0.395787)
(-0.000236661 0.000599825 0.386366)
(-0.000305664 0.000511046 0.37293)
(-0.000350271 0.000409266 0.356263)
(0.00104806 0.00121959 0.57429)
(0.000924183 0.00150872 0.599891)
(0.000723284 0.00176591 0.620464)
(0.000465567 0.00195797 0.634863)
(0.000160629 0.00206192 0.642273)
(-0.000160705 0.00206192 0.642273)
(-0.00046564 0.00195796 0.634863)
(-0.000723353 0.00176589 0.620463)
(-0.000924248 0.00150869 0.599891)
(-0.00104812 0.00121955 0.574289)
(0.00205668 0.002387 0.776427)
(0.00181565 0.00292676 0.809305)
(0.00142361 0.00340913 0.835605)
(0.000914494 0.00376944 0.853973)
(0.000315365 0.00396392 0.863413)
(-0.000315474 0.00396391 0.863413)
(-0.0009146 0.00376942 0.853973)
(-0.00142371 0.0034091 0.835604)
(-0.00181574 0.00292673 0.809305)
(-0.00205676 0.00238696 0.776426)
(0.00325799 0.00376992 0.962318)
(0.00286867 0.00457594 1.00082)
(0.00224583 0.00529511 1.03144)
(0.0014389 0.00583046 1.05277)
(0.000495657 0.00611845 1.06372)
(-0.0004958 0.00611845 1.06372)
(-0.00143904 0.00583045 1.05277)
(-0.00224596 0.00529508 1.03144)
(-0.00286879 0.0045759 1.00082)
(-0.00325809 0.00376987 0.962318)
(0.00451802 0.00520922 1.1317)
(0.00395878 0.00624882 1.1742)
(0.0030885 0.00717096 1.20777)
(0.00197224 0.00785362 1.2311)
(0.000678303 0.00821935 1.24305)
(-0.000678479 0.00821934 1.24305)
(-0.00197241 0.00785361 1.2311)
(-0.00308867 0.00717093 1.20777)
(-0.00395893 0.00624878 1.17419)
(-0.00451815 0.00520917 1.1317)
(0.00570185 0.00654624 1.28437)
(0.00496325 0.00774444 1.32929)
(0.00385333 0.0087971 1.36455)
(0.00245078 0.00957079 1.38895)
(0.000841203 0.00998324 1.40143)
(-0.000841411 0.00998323 1.40143)
(-0.00245098 0.00957078 1.38895)
(-0.00385352 0.00879707 1.36454)
(-0.00496342 0.00774441 1.32929)
(-0.005702 0.0065462 1.28436)
(0.00668657 0.00763592 1.42012)
(0.0057743 0.00888691 1.46605)
(0.00445606 0.00997109 1.50184)
(0.00282066 0.0107605 1.52651)
(0.000965816 0.0111788 1.53908)
(-0.000966053 0.0111787 1.53908)
(-0.00282089 0.0107605 1.52651)
(-0.00445628 0.00997107 1.50184)
(-0.0057745 0.00888688 1.46605)
(-0.00668674 0.00763589 1.42012)
(0.00738343 0.00836891 1.53863)
(0.00631628 0.009554 1.58452)
(0.00483703 0.0105533 1.61992)
(0.00304347 0.0112721 1.64412)
(0.00103889 0.0116497 1.65639)
(-0.00103915 0.0116497 1.65639)
(-0.00304372 0.0112721 1.64412)
(-0.00483727 0.0105533 1.61992)
(-0.00631649 0.00955398 1.58452)
(-0.00738362 0.00836889 1.53863)
(0.00774791 0.00877694 1.63933)
(0.00654014 0.00968145 1.68527)
(0.00495044 0.0104558 1.71939)
(0.00309018 0.0110027 1.74239)
(0.00105061 0.0112866 1.75396)
(-0.00105088 0.0112866 1.75396)
(-0.00309044 0.0110027 1.74239)
(-0.00495069 0.0104558 1.71938)
(-0.00654037 0.00968144 1.68527)
(-0.00774811 0.00877692 1.63933)
(7.39146e-06 1.18781e-05 0.122411)
(2.93321e-06 1.55135e-05 0.128475)
(4.31421e-07 1.65509e-05 0.133365)
(8.16339e-09 1.65261e-05 0.136797)
(-8.20173e-08 1.64066e-05 0.138567)
(7.22064e-08 1.64059e-05 0.138567)
(-1.7741e-08 1.65239e-05 0.136797)
(-4.40545e-07 1.65473e-05 0.133365)
(-2.94203e-06 1.55084e-05 0.128475)
(-7.3988e-06 1.1872e-05 0.122411)
(0.000132412 0.000161211 0.355024)
(0.000109416 0.000201658 0.371616)
(8.18102e-05 0.000233362 0.384981)
(5.18319e-05 0.000255615 0.39435)
(1.77052e-05 0.000267431 0.399175)
(-1.77371e-05 0.000267428 0.399175)
(-5.1863e-05 0.000255608 0.39435)
(-8.18396e-05 0.000233352 0.384981)
(-0.000109444 0.000201644 0.371616)
(-0.000132436 0.000161194 0.355024)
(0.000399236 0.000472858 0.572295)
(0.000344305 0.000586844 0.597801)
(0.000265864 0.000683781 0.618285)
(0.00016994 0.000754894 0.632621)
(5.84346e-05 0.000793085 0.639997)
(-5.84899e-05 0.000793082 0.639997)
(-0.000169994 0.000754885 0.632621)
(-0.000265915 0.000683766 0.618285)
(-0.000344353 0.000586822 0.597801)
(-0.000399276 0.000472833 0.572295)
(0.000795635 0.000932308 0.773965)
(0.000694838 0.00114819 0.806778)
(0.000541509 0.00133668 0.833016)
(0.000346865 0.00147647 0.851344)
(0.00011946 0.00155171 0.860763)
(-0.000119539 0.00155171 0.860763)
(-0.000346943 0.00147646 0.851344)
(-0.000541582 0.00133666 0.833016)
(-0.000694905 0.00114817 0.806778)
(-0.000795693 0.000932277 0.773965)
(0.00128301 0.00149342 0.959799)
(0.00112379 0.00182232 0.998319)
(0.000877661 0.00211198 1.02896)
(0.000561895 0.0023271 1.05031)
(0.000193498 0.00244277 1.06127)
(-0.000193602 0.00244276 1.06127)
(-0.000561996 0.00232709 1.05031)
(-0.000877757 0.00211196 1.02896)
(-0.00112388 0.00182229 0.998319)
(-0.00128309 0.00149339 0.959798)
(0.00181121 0.00209677 1.12958)
(0.00158377 0.00253007 1.17223)
(0.00123517 0.00291156 1.20595)
(0.000789108 0.00319403 1.22938)
(0.000271471 0.00334548 1.24139)
(-0.0002716 0.00334548 1.24139)
(-0.000789233 0.00319402 1.22938)
(-0.00123529 0.00291154 1.20595)
(-0.00158388 0.00253004 1.17223)
(-0.00181131 0.00209674 1.12958)
(0.0023245 0.00267679 1.28311)
(0.00202324 0.00318673 1.32836)
(0.00157222 0.00363291 1.3639)
(0.00100115 0.00396135 1.38852)
(0.00034385 0.00413669 1.40112)
(-0.000344001 0.00413669 1.40112)
(-0.00100129 0.00396134 1.38852)
(-0.00157236 0.00363289 1.3639)
(-0.00202337 0.00318671 1.32836)
(-0.00232462 0.00267676 1.28311)
(0.00276803 0.00316853 1.42012)
(0.00239324 0.00371185 1.46656)
(0.00184999 0.00418189 1.50279)
(0.00117293 0.00452487 1.52779)
(0.00040195 0.00470689 1.54054)
(-0.000402122 0.00470688 1.54054)
(-0.00117309 0.00452486 1.52779)
(-0.00185015 0.00418188 1.50279)
(-0.00239339 0.00371182 1.46656)
(-0.00276815 0.0031685 1.42012)
(0.00309863 0.00351851 1.54018)
(0.00265604 0.00404376 1.58676)
(0.00203832 0.00448671 1.62275)
(0.00128485 0.00480596 1.64739)
(0.000438978 0.00497394 1.65989)
(-0.000439168 0.00497393 1.65989)
(-0.00128503 0.00480595 1.64739)
(-0.0020385 0.0044867 1.62275)
(-0.0026562 0.00404374 1.58676)
(-0.00309877 0.00351849 1.54018)
(0.00329094 0.00373365 1.64257)
(0.00278403 0.00414549 1.6894)
(0.00211232 0.00449651 1.72423)
(0.00132102 0.00474483 1.74775)
(0.000449529 0.00487393 1.75958)
(-0.00044973 0.00487393 1.75958)
(-0.00132122 0.00474483 1.74775)
(-0.0021125 0.0044965 1.72423)
(-0.0027842 0.00414548 1.6894)
(-0.00329109 0.00373364 1.64257)
(-5.90671e-07 -1.55268e-08 0.122244)
(-1.57371e-06 4.15623e-07 0.1283)
(-1.72835e-06 2.12593e-07 0.133183)
(-1.12964e-06 -1.17232e-07 0.13661)
(-4.09243e-07 -3.05257e-07 0.138377)
(4.02278e-07 -3.05786e-07 0.138377)
(1.12287e-06 -1.18813e-07 0.13661)
(1.72192e-06 2.10048e-07 0.133183)
(1.56753e-06 4.12062e-07 0.1283)
(5.8561e-07 -1.98093e-08 0.122244)
(3.6063e-05 4.34824e-05 0.354488)
(2.94869e-05 5.53536e-05 0.371052)
(2.19977e-05 6.46829e-05 0.384392)
(1.40269e-05 7.13682e-05 0.393744)
(4.79656e-06 7.49673e-05 0.398561)
(-4.81914e-06 7.49658e-05 0.398561)
(-1.40488e-05 7.13637e-05 0.393744)
(-2.20184e-05 6.46757e-05 0.384392)
(-2.95064e-05 5.53438e-05 0.371052)
(-3.60791e-05 4.34705e-05 0.354488)
(0.000125224 0.000147114 0.571418)
(0.000108276 0.000184677 0.596885)
(8.40044e-05 0.000216928 0.617335)
(5.39631e-05 0.000240966 0.631648)
(1.85914e-05 0.000253986 0.639013)
(-1.86306e-05 0.000253983 0.639013)
(-5.40011e-05 0.000240959 0.631648)
(-8.40403e-05 0.000216917 0.617335)
(-0.00010831 0.000184662 0.596885)
(-0.000125252 0.000147096 0.571417)
(0.000266557 0.000310235 0.772845)
(0.000233978 0.000385715 0.805626)
(0.000183376 0.000452243 0.831838)
(0.000118002 0.000502235 0.850148)
(4.07219e-05 0.000529336 0.859559)
(-4.07782e-05 0.000529333 0.859559)
(-0.000118057 0.000502227 0.850148)
(-0.000183428 0.000452229 0.831837)
(-0.000234026 0.000385696 0.805626)
(-0.000266598 0.000310213 0.772845)
(0.000448395 0.000518787 0.958587)
(0.000395165 0.00063849 0.997104)
(0.00031047 0.000744898 1.02774)
(0.00019967 0.00082487 1.0491)
(6.89031e-05 0.000868152 1.06006)
(-6.89767e-05 0.000868148 1.06006)
(-0.000199742 0.00082486 1.0491)
(-0.000310537 0.000744883 1.02774)
(-0.000395227 0.000638469 0.997104)
(-0.000448449 0.000518763 0.958586)
(0.000652958 0.00075166 1.12846)
(0.000574826 0.000914299 1.17116)
(0.00045109 0.00105884 1.20492)
(0.0002895 0.00116706 1.22839)
(9.98065e-05 0.00122545 1.24042)
(-9.98971e-05 0.00122545 1.24042)
(-0.000289588 0.00116705 1.22839)
(-0.000451174 0.00105882 1.20492)
(-0.000574903 0.000914277 1.17116)
(-0.000653025 0.000751635 1.12846)
(0.000858745 0.000983544 1.28227)
(0.000752824 0.00117986 1.32764)
(0.000588705 0.00135328 1.36328)
(0.000376574 0.00148229 1.38799)
(0.000129613 0.00155157 1.40063)
(-0.00012972 0.00155156 1.40063)
(-0.000376679 0.00148228 1.38799)
(-0.000588804 0.00135327 1.36328)
(-0.000752914 0.00117984 1.32764)
(-0.000858824 0.00098352 1.28227)
(0.00104333 0.0011879 1.41974)
(0.000908785 0.00140172 1.46638)
(0.000706906 0.00158849 1.50278)
(0.000450177 0.00172608 1.52791)
(0.000154591 0.00179949 1.54073)
(-0.000154713 0.00179948 1.54073)
(-0.000450296 0.00172607 1.52791)
(-0.000707019 0.00158847 1.50278)
(-0.000908889 0.0014017 1.46637)
(-0.00104342 0.00118788 1.41974)
(0.0011881 0.00134195 1.54039)
(0.00102588 0.00155297 1.58725)
(0.000791978 0.00173245 1.62348)
(0.000501283 0.0018628 1.6483)
(0.000171595 0.00193169 1.6609)
(-0.000171729 0.00193169 1.6609)
(-0.000501414 0.00186279 1.6483)
(-0.000792103 0.00173244 1.62348)
(-0.001026 0.00155295 1.58725)
(-0.0011882 0.00134193 1.54039)
(0.0012807 0.00144711 1.64347)
(0.00109028 0.00161719 1.69066)
(0.000831668 0.0017617 1.72579)
(0.00052201 0.00186444 1.74952)
(0.000177929 0.00191802 1.76147)
(-0.000178072 0.00191802 1.76147)
(-0.00052215 0.00186444 1.74952)
(-0.000831801 0.0017617 1.72579)
(-0.0010904 0.00161718 1.69066)
(-0.00128081 0.0014471 1.64346)
(-3.07359e-08 7.03515e-07 0.122221)
(-8.5644e-07 1.06318e-06 0.128274)
(-1.04923e-06 8.8866e-07 0.133153)
(-7.63525e-07 5.98382e-07 0.136578)
(-2.84331e-07 4.12867e-07 0.138344)
(2.79553e-07 4.12498e-07 0.138344)
(7.58879e-07 5.97301e-07 0.136578)
(1.04486e-06 8.86897e-07 0.133153)
(8.52378e-07 1.0608e-06 0.128274)
(2.73463e-08 7.00723e-07 0.122221)
(9.84493e-06 1.31086e-05 0.354369)
(6.7624e-06 1.6944e-05 0.370923)
(4.38875e-06 1.93123e-05 0.384252)
(2.58472e-06 2.07749e-05 0.393596)
(8.42506e-07 2.15067e-05 0.398408)
(-8.57964e-07 2.15056e-05 0.398408)
(-2.59972e-06 2.07718e-05 0.393596)
(-4.40282e-06 1.93073e-05 0.384252)
(-6.77535e-06 1.69373e-05 0.370922)