/*--------------------------------*- C++ -*----------------------------------*\
| =========                 |                                                 |
| \\      /  F ield         | OpenFOAM: The Open Source CFD Toolbox           |
|  \\    /   O peration     | Version:  2106                                  |
|   \\  /    A nd           | Website:  www.openfoam.com                      |
|    \\/     M anipulation  |                                                 |
\*---------------------------------------------------------------------------*/
FoamFile
{
    version     2.0;
    format      ascii;
    arch        "LSB;label=32;scalar=64";
    class       volVectorField;
    location    "0.04";
    object      U;
}
// * * * * * * * * * * * * * * * * * * * * * * * * * * * * * * * * * * * * * //

dimensions      [0 1 -1 0 0 0 0];

internalField   nonuniform List<vector> 
10000
(
(0.0607496 0.0713611 0.348687)
(0.0519393 0.0809812 0.3632)
(0.0388698 0.0897572 0.374636)
(0.0241365 0.0959211 0.382524)
(0.00818462 0.0991187 0.386529)
(-0.00818462 0.0991187 0.386529)
(-0.0241365 0.0959211 0.382524)
(-0.0388698 0.0897572 0.374636)
(-0.0519393 0.0809812 0.3632)
(-0.0607496 0.0713611 0.348687)
(0.157684 0.18686 0.728281)
(0.132945 0.210212 0.746808)
(0.0990521 0.230863 0.760638)
(0.061175 0.24512 0.769919)
(0.0206886 0.252458 0.774531)
(-0.0206886 0.252458 0.774531)
(-0.061175 0.24512 0.769919)
(-0.0990521 0.230863 0.760638)
(-0.132945 0.210212 0.746808)
(-0.157684 0.18686 0.728281)
(0.191134 0.227094 0.913645)
(0.158908 0.25103 0.92687)
(0.117234 0.272126 0.935971)
(0.071872 0.286379 0.941846)
(0.0242156 0.293633 0.94467)
(-0.0242156 0.293633 0.94467)
(-0.071872 0.286379 0.941846)
(-0.117234 0.272126 0.935971)
(-0.158908 0.25103 0.92687)
(-0.191134 0.227094 0.913645)
(0.188656 0.224234 0.998945)
(0.154926 0.243317 1.00574)
(0.113202 0.26043 1.0096)
(0.0689131 0.271709 1.01188)
(0.0231376 0.277379 1.01288)
(-0.0231376 0.277379 1.01288)
(-0.0689131 0.271709 1.01188)
(-0.113202 0.26043 1.0096)
(-0.154926 0.243317 1.00574)
(-0.188656 0.224234 0.998945)
(0.172357 0.204977 1.03346)
(0.140188 0.218712 1.03532)
(0.101634 0.231509 1.03535)
(0.0615106 0.239746 1.03509)
(0.020594 0.243833 1.03483)
(-0.020594 0.243833 1.03483)
(-0.0615106 0.239746 1.03509)
(-0.101634 0.231509 1.03535)
(-0.140188 0.218712 1.03532)
(-0.172357 0.204977 1.03346)
(0.151643 0.180508 1.04274)
(0.12238 0.189649 1.04149)
(0.0881665 0.198736 1.03923)
(0.0531001 0.204462 1.03748)
(0.0177373 0.207264 1.03652)
(-0.0177373 0.207264 1.03652)
(-0.0531001 0.204462 1.03748)
(-0.0881665 0.198736 1.03923)
(-0.12238 0.189649 1.04149)
(-0.151643 0.180508 1.04274)
(0.130375 0.155228 1.0404)
(0.104489 0.160669 1.03755)
(0.0748915 0.166699 1.03422)
(0.0449192 0.170439 1.03181)
(0.0149758 0.172246 1.03055)
(-0.0149758 0.172246 1.03055)
(-0.0449193 0.170439 1.03181)
(-0.0748915 0.166699 1.03422)
(-0.104489 0.160669 1.03755)
(-0.130375 0.155228 1.0404)
(0.110417 0.131334 1.03371)
(0.0879141 0.133869 1.03034)
(0.0627473 0.137383 1.02677)
(0.0375087 0.139555 1.02423)
(0.0124857 0.140599 1.02292)
(-0.0124857 0.140599 1.02292)
(-0.0375087 0.139555 1.02423)
(-0.0627473 0.137383 1.02677)
(-0.0879141 0.133869 1.03034)
(-0.110417 0.131334 1.03371)
(0.0925353 0.109685 1.02629)
(0.0732229 0.10992 1.02299)
(0.0520929 0.111371 1.01964)
(0.0310606 0.112331 1.01729)
(0.0103281 0.112802 1.01609)
(-0.0103281 0.112802 1.01609)
(-0.0310606 0.112331 1.01729)
(-0.052093 0.111371 1.01964)
(-0.0732229 0.10992 1.02299)
(-0.0925353 0.109685 1.02629)
(0.0771788 0.0901668 1.01981)
(0.0608819 0.0880927 1.01667)
(0.043041 0.0882326 1.01374)
(0.0256147 0.0884156 1.01172)
(0.00850513 0.0885338 1.0107)
(-0.00850523 0.0885338 1.0107)
(-0.0256148 0.0884156 1.01172)
(-0.043041 0.0882325 1.01374)
(-0.060882 0.0880925 1.01667)
(-0.0771788 0.0901667 1.01981)
(0.0110855 0.0142854 0.315157)
(0.00925142 0.0175982 0.330205)
(0.00699494 0.0202075 0.342608)
(0.00441785 0.0219948 0.351282)
(0.00151143 0.0229228 0.355729)
(-0.00151143 0.0229228 0.355729)
(-0.00441785 0.0219948 0.351282)
(-0.00699494 0.0202075 0.342608)
(-0.00925142 0.0175982 0.330205)
(-0.0110855 0.0142853 0.315157)
(0.0427903 0.0526108 0.743195)
(0.0361474 0.0628414 0.768595)
(0.0273762 0.0713076 0.789116)
(0.0171827 0.0771709 0.803201)
(0.00586064 0.080209 0.810322)
(-0.00586065 0.080209 0.810322)
(-0.0171827 0.0771709 0.803201)
(-0.0273762 0.0713076 0.789116)
(-0.0361474 0.0628414 0.768595)
(-0.0427903 0.0526108 0.743195)
(0.0679294 0.0825686 1.00768)
(0.0568019 0.0964262 1.03077)
(0.0425925 0.107874 1.04894)
(0.0264974 0.115684 1.0611)
(0.00899639 0.119688 1.06714)
(-0.0089964 0.119688 1.06714)
(-0.0264974 0.115684 1.0611)
(-0.0425925 0.107874 1.04894)
(-0.0568019 0.0964262 1.03077)
(-0.0679295 0.0825686 1.00768)
(0.0828861 0.10019 1.15596)
(0.0684551 0.114646 1.17134)
(0.0507872 0.126525 1.18306)
(0.0313282 0.13448 1.19061)
(0.0105908 0.138512 1.19425)
(-0.0105908 0.138512 1.19425)
(-0.0313282 0.13448 1.19061)
(-0.0507872 0.126525 1.18306)
(-0.0684551 0.114646 1.17134)
(-0.0828861 0.10019 1.15596)
(0.0890364 0.107214 1.22789)
(0.0727205 0.120531 1.23522)
(0.0534476 0.131427 1.24045)
(0.0327282 0.138595 1.24356)
(0.0110236 0.14219 1.24495)
(-0.0110236 0.14219 1.24495)
(-0.0327282 0.138595 1.24356)
(-0.0534477 0.131427 1.24045)
(-0.0727205 0.120531 1.23522)
(-0.0890365 0.107214 1.22789)
(0.089096 0.106943 1.25426)
(0.0720524 0.118337 1.25528)
(0.0525281 0.127619 1.25564)
(0.0319623 0.133633 1.2555)
(0.010732 0.136618 1.25529)
(-0.010732 0.136618 1.25529)
(-0.0319623 0.133633 1.2555)
(-0.0525281 0.127619 1.25564)
(-0.0720524 0.118337 1.25528)
(-0.089096 0.106943 1.25426)
(0.085246 0.101996 1.25557)
(0.0683099 0.111196 1.25256)
(0.0494476 0.118628 1.24995)
(0.029924 0.123381 1.24792)
(0.0100207 0.125721 1.24679)
(-0.0100207 0.125721 1.24679)
(-0.029924 0.123381 1.24792)
(-0.0494477 0.118628 1.24995)
(-0.06831 0.111196 1.25256)
(-0.085246 0.101996 1.25557)
(0.0790132 0.0942072 1.24504)
(0.0627641 0.101158 1.23994)
(0.0451556 0.106681 1.2359)
(0.0272026 0.110181 1.23302)
(0.00908953 0.111899 1.2315)
(-0.00908958 0.111899 1.2315)
(-0.0272026 0.110181 1.23302)
(-0.0451556 0.106681 1.2359)
(-0.0627642 0.101158 1.23994)
(-0.0790133 0.0942072 1.24504)
(0.0713631 0.0846255 1.23044)
(0.0562501 0.0893187 1.22456)
(0.0402899 0.0929746 1.22003)
(0.0241895 0.0953293 1.2169)
(0.00807111 0.0964928 1.21529)
(-0.00807119 0.0964928 1.21529)
(-0.0241896 0.0953292 1.2169)
(-0.0402899 0.0929745 1.22003)
(-0.0562501 0.0893186 1.22456)
(-0.0713632 0.0846254 1.23044)
(0.0631172 0.0740686 1.21624)
(0.0496278 0.0758468 1.21008)
(0.0353561 0.077909 1.20543)
(0.0211898 0.079304 1.20229)
(0.00705992 0.0800197 1.2007)
(-0.00706002 0.0800197 1.2007)
(-0.0211898 0.079304 1.20229)
(-0.0353562 0.077909 1.20543)
(-0.0496278 0.0758467 1.21008)
(-0.0631172 0.0740686 1.21624)
(0.000181715 -4.31523e-05 0.224113)
(0.000449791 -2.42022e-05 0.236151)
(0.000435425 0.000184464 0.246274)
(0.000327529 0.000382607 0.253485)
(0.00012039 0.000503771 0.257222)
(-0.000120392 0.000503767 0.257222)
(-0.000327532 0.000382609 0.253485)
(-0.000435427 0.000184466 0.246274)
(-0.000449789 -2.41996e-05 0.236151)
(-0.000181719 -4.3157e-05 0.224113)
(0.00937617 0.0104711 0.599966)
(0.00882965 0.0126241 0.625233)
(0.00706581 0.0149299 0.646154)
(0.00459278 0.0167013 0.660829)
(0.00159216 0.0176711 0.66835)
(-0.00159216 0.0176711 0.66835)
(-0.00459279 0.0167013 0.660829)
(-0.00706582 0.0149299 0.646154)
(-0.00882966 0.0126241 0.625233)
(-0.00937619 0.0104711 0.599966)
(0.0198574 0.02271 0.871806)
(0.0179227 0.0267665 0.898843)
(0.0140364 0.0307964 0.920794)
(0.00897431 0.0337972 0.935913)
(0.00308686 0.035411 0.94356)
(-0.00308686 0.035411 0.94356)
(-0.00897431 0.0337972 0.935913)
(-0.0140364 0.0307964 0.920794)
(-0.0179227 0.0267665 0.898843)
(-0.0198574 0.02271 0.871806)
(0.0294489 0.0340351 1.04841)
(0.0259286 0.0393054 1.07018)
(0.0200012 0.0443678 1.08751)
(0.0126446 0.0480504 1.09921)
(0.00432564 0.0500052 1.10504)
(-0.00432565 0.0500052 1.10504)
(-0.0126446 0.0480504 1.09921)
(-0.0200012 0.0443678 1.08751)
(-0.0259286 0.0393054 1.07018)
(-0.029449 0.034035 1.04841)
(0.0362587 0.0421034 1.15187)
(0.0313708 0.0477147 1.16628)
(0.0239202 0.0530259 1.17748)
(0.0149928 0.0568214 1.18485)
(0.00510765 0.0588152 1.18846)
(-0.00510766 0.0588152 1.18846)
(-0.0149928 0.0568214 1.18485)
(-0.0239202 0.0530259 1.17748)
(-0.0313709 0.0477147 1.16628)
(-0.0362588 0.0421034 1.15187)
(0.0400294 0.0465461 1.20607)
(0.0341633 0.051805 1.21373)
(0.0258063 0.0567649 1.21949)
(0.0160626 0.0602632 1.22314)
(0.00545369 0.0620853 1.22488)
(-0.00545371 0.0620854 1.22488)
(-0.0160626 0.0602632 1.22314)
(-0.0258064 0.0567649 1.21949)
(-0.0341633 0.051805 1.21373)
(-0.0400294 0.0465461 1.20607)
(0.0411952 0.0478664 1.22957)
(0.034762 0.0523297 1.2322)
(0.0260539 0.0565533 1.23404)
(0.0161216 0.0595063 1.23508)
(0.00545823 0.0610343 1.23551)
(-0.00545825 0.0610343 1.23551)
(-0.0161216 0.0595063 1.23508)
(-0.0260539 0.0565533 1.23404)
(-0.0347621 0.0523297 1.2322)
(-0.0411952 0.0478664 1.22957)
(0.0403544 0.0467765 1.23577)
(0.0337162 0.050192 1.23519)
(0.0251016 0.0534546 1.23459)
(0.0154543 0.055729 1.23402)
(0.00521948 0.0569022 1.23367)
(-0.00521951 0.0569022 1.23367)
(-0.0154543 0.055729 1.23402)
(-0.0251017 0.0534546 1.23459)
(-0.0337162 0.0501919 1.23519)
(-0.0403544 0.0467765 1.23577)
(0.0381011 0.0439458 1.23338)
(0.0315542 0.0461964 1.23099)
(0.0233535 0.0483952 1.22902)
(0.014314 0.0499456 1.22757)
(0.0048237 0.0507465 1.2268)
(-0.00482375 0.0507465 1.2268)
(-0.014314 0.0499456 1.22757)
(-0.0233535 0.0483951 1.22902)
(-0.0315542 0.0461963 1.23099)
(-0.0381011 0.0439458 1.23338)
(0.0351064 0.0399992 1.22763)
(0.0288335 0.0409018 1.22424)
(0.021154 0.0421039 1.22157)
(0.0129031 0.0429679 1.21969)
(0.00433661 0.0434181 1.21872)
(-0.00433668 0.0434181 1.21872)
(-0.0129032 0.0429679 1.21969)
(-0.0211541 0.0421039 1.22157)
(-0.0288336 0.0409018 1.22424)
(-0.0351064 0.0399992 1.22763)
(0.000729331 0.00101121 0.220022)
(0.000536611 0.00125204 0.231286)
(0.000351043 0.00139505 0.240582)
(0.000205821 0.00146695 0.247163)
(6.76646e-05 0.00149875 0.250564)
(-6.76658e-05 0.00149875 0.250564)
(-0.000205823 0.00146696 0.247163)
(-0.000351046 0.00139506 0.240582)
(-0.000536608 0.00125204 0.231286)
(-0.000729335 0.00101121 0.220022)
(0.00399468 0.00500365 0.593135)
(0.00332757 0.00609442 0.617638)
(0.00247083 0.00695017 0.637625)
(0.00154201 0.00751804 0.651582)
(0.000524685 0.00780934 0.658721)
(-0.000524689 0.00780934 0.658721)
(-0.00154202 0.00751804 0.651582)
(-0.00247083 0.00695017 0.637625)
(-0.00332757 0.00609441 0.617638)
(-0.00399469 0.00500364 0.593135)
(0.00836123 0.0102469 0.869038)
(0.00706091 0.0122756 0.896161)
(0.00530946 0.0139359 0.917876)
(0.00332162 0.0150654 0.932774)
(0.00113131 0.0156486 0.940299)
(-0.00113131 0.0156486 0.940299)
(-0.00332162 0.0150654 0.932774)
(-0.00530947 0.0139359 0.917876)
(-0.00706092 0.0122756 0.896161)
(-0.00836125 0.0102469 0.869038)
(0.0127995 0.0155584 1.05444)
(0.0107947 0.0183441 1.07727)
(0.00811381 0.0206597 1.09519)
(0.00506069 0.0222359 1.10725)
(0.00172085 0.0230477 1.11325)
(-0.00172085 0.0230477 1.11325)
(-0.00506069 0.0222359 1.10725)
(-0.00811382 0.0206597 1.09519)
(-0.0107948 0.0183441 1.07727)
(-0.0127995 0.0155583 1.05444)
(0.0165351 0.0200153 1.16871)
(0.0138577 0.0232348 1.18491)
(0.0103679 0.0259234 1.19731)
(0.00643577 0.0277415 1.20546)
(0.00218317 0.0286719 1.20945)
(-0.00218317 0.0286719 1.20945)
(-0.00643578 0.0277415 1.20546)
(-0.010368 0.0259234 1.19731)
(-0.0138577 0.0232347 1.18491)
(-0.0165351 0.0200153 1.16871)
(0.0192508 0.0232348 1.23387)
(0.0159997 0.0265605 1.24373)
(0.0118953 0.0293325 1.25103)
(0.00734419 0.0311899 1.25569)
(0.00248467 0.0321336 1.25791)
(-0.00248467 0.0321336 1.25791)
(-0.0073442 0.0311899 1.25569)
(-0.0118953 0.0293325 1.25103)
(-0.0159997 0.0265605 1.24373)
(-0.0192508 0.0232347 1.23387)
(0.0208778 0.0251316 1.26739)
(0.0171903 0.0282849 1.27236)
(0.0126935 0.0308943 1.27588)
(0.00779469 0.032627 1.27799)
(0.00263004 0.0335015 1.27896)
(-0.00263005 0.0335015 1.27896)
(-0.0077947 0.0326271 1.27799)
(-0.0126935 0.0308943 1.27588)
(-0.0171903 0.0282849 1.27236)
(-0.0208778 0.0251316 1.26739)
(0.0214648 0.0257573 1.2822)
(0.017504 0.0285126 1.28394)
(0.0128408 0.0307677 1.285)
(0.00784629 0.0322565 1.28551)
(0.00264101 0.0330054 1.28569)
(-0.00264103 0.0330054 1.28569)
(-0.00784632 0.0322565 1.28551)
(-0.0128408 0.0307677 1.285)
(-0.017504 0.0285125 1.28394)
(-0.0214648 0.0257572 1.2822)
(0.0211185 0.0251879 1.28683)
(0.017075 0.0273612 1.28666)
(0.0124612 0.02913 1.28631)
(0.00758398 0.0303088 1.28591)
(0.00254786 0.0309029 1.28566)
(-0.00254789 0.0309029 1.28566)
(-0.00758402 0.0303088 1.28591)
(-0.0124613 0.0291299 1.28631)
(-0.017075 0.0273611 1.28666)
(-0.0211185 0.0251879 1.28683)
(0.0200663 0.0235936 1.28647)
(0.0161491 0.0248662 1.28527)
(0.0117118 0.0260971 1.28417)
(0.00710785 0.0269345 1.28332)
(0.00238328 0.0273625 1.28285)
(-0.00238334 0.0273625 1.28285)
(-0.0071079 0.0269345 1.28332)
(-0.0117119 0.0260971 1.28417)
(-0.0161491 0.0248662 1.28527)
(-0.0200663 0.0235936 1.28647)
(8.58286e-06 -2.82832e-05 0.212323)
(4.56433e-05 -2.24235e-05 0.223413)
(4.68271e-05 9.99399e-06 0.232612)
(3.68833e-05 4.01346e-05 0.23915)
(1.36847e-05 5.82628e-05 0.242534)
(-1.36846e-05 5.82628e-05 0.242534)
(-3.68843e-05 4.01352e-05 0.23915)
(-4.68285e-05 9.995e-06 0.232612)
(-4.56401e-05 -2.24221e-05 0.223413)
(-8.58534e-06 -2.82843e-05 0.212323)
(0.000974225 0.0010643 0.576891)
(0.000940589 0.00132264 0.601325)
(0.000762051 0.00160872 0.621368)
(0.000501202 0.00183207 0.635423)
(0.000174605 0.00195559 0.642628)
(-0.000174609 0.00195559 0.642628)
(-0.000501205 0.00183207 0.635423)
(-0.000762055 0.00160872 0.621368)
(-0.000940588 0.00132264 0.601325)
(-0.000974236 0.0010643 0.576891)
(0.00250218 0.00284064 0.849258)
(0.00229696 0.00344753 0.876663)
(0.00182412 0.00405692 0.898768)
(0.00117969 0.00451913 0.914022)
(0.000408008 0.00477053 0.921752)
(-0.000408007 0.00477053 0.921752)
(-0.00117969 0.00451913 0.914022)
(-0.00182412 0.00405692 0.898768)
(-0.00229696 0.00344753 0.876663)
(-0.00250219 0.00284064 0.849258)
(0.00429902 0.00494611 1.03476)
(0.00385011 0.00588768 1.05828)
(0.00301857 0.00679748 1.07696)
(0.0019325 0.00747504 1.08963)
(0.000665277 0.00783969 1.09598)
(-0.000665277 0.00783969 1.09598)
(-0.0019325 0.00747504 1.08963)
(-0.00301857 0.00679748 1.07696)
(-0.00385011 0.00588767 1.05828)
(-0.00429904 0.00494611 1.03476)
(0.00599598 0.00693276 1.15135)
(0.00528072 0.00810484 1.1686)
(0.0040984 0.00921648 1.18204)
(0.00260365 0.0100336 1.19102)
(0.00089307 0.0104698 1.19545)
(-0.000893071 0.0104698 1.19545)
(-0.00260365 0.0100336 1.19102)
(-0.0040984 0.00921647 1.18204)
(-0.00528072 0.00810483 1.1686)
(-0.005996 0.00693276 1.15135)
(0.00737157 0.00852955 1.21993)
(0.00640671 0.00979627 1.23106)
(0.00492907 0.0109853 1.23958)
(0.00311097 0.0118508 1.24517)
(0.00106376 0.0123101 1.2479)
(-0.00106376 0.0123101 1.2479)
(-0.00311098 0.0118508 1.24517)
(-0.00492908 0.0109852 1.23958)
(-0.0064067 0.00979626 1.23106)
(-0.00737159 0.00852955 1.21993)
(0.00832339 0.00961191 1.25723)
(0.00715257 0.0108407 1.26356)
(0.00546027 0.0119863 1.26833)
(0.0034263 0.0128146 1.27141)
(0.00116829 0.0132519 1.27289)
(-0.00116831 0.0132519 1.27289)
(-0.00342632 0.0128146 1.27141)
(-0.00546028 0.0119863 1.26833)
(-0.00715256 0.0108407 1.26356)
(-0.00832342 0.00961191 1.25723)
(0.00882683 0.0101505 1.2757)
(0.00751047 0.0112285 1.27876)
(0.00569367 0.0122279 1.28103)
(0.00355399 0.0129474 1.28245)
(0.00120868 0.0133263 1.28312)
(-0.0012087 0.0133263 1.28312)
(-0.00355401 0.0129474 1.28245)
(-0.00569367 0.0122279 1.28103)
(-0.00751045 0.0112284 1.27876)
(-0.00882683 0.0101505 1.2757)
(0.00891902 0.0101832 1.28358)
(0.00752021 0.0110258 1.28463)
(0.00566503 0.0117995 1.28539)
(0.00351781 0.0123584 1.28581)
(0.00119338 0.0126516 1.28599)
(-0.00119341 0.0126516 1.28599)
(-0.00351782 0.0123584 1.28581)
(-0.00566502 0.0117995 1.28539)
(-0.00752015 0.0110257 1.28463)
(-0.00891901 0.0101832 1.28358)
(0.0086939 0.00983584 1.28592)
(0.00726346 0.0103294 1.28586)
(0.00541751 0.0108351 1.28576)
(0.00334532 0.0111981 1.28561)
(0.00113092 0.0113885 1.28551)
(-0.00113095 0.0113885 1.28551)
(-0.00334534 0.0111981 1.28561)
(-0.0054175 0.0108351 1.28576)
(-0.00726341 0.0103294 1.28586)
(-0.00869383 0.00983583 1.28592)
(7.03621e-05 9.58806e-05 0.211685)
(5.1496e-05 0.000118094 0.222659)
(3.15142e-05 0.000130755 0.231724)
(1.79992e-05 0.000136075 0.238157)
(5.80858e-06 0.000138239 0.241485)
(-5.80856e-06 0.000138239 0.241485)
(-1.79995e-05 0.000136076 0.238157)
(-3.15147e-05 0.000130755 0.231724)
(-5.14936e-05 0.000118095 0.222659)
(-7.03637e-05 9.588e-05 0.211685)
(0.00051727 0.000636276 0.575093)
(0.000438161 0.000776222 0.599334)
(0.000326687 0.000889724 0.619151)
(0.000204703 0.000965851 0.633031)
(6.9768e-05 0.00100541 0.640143)
(-6.9769e-05 0.00100541 0.640143)
(-0.000204704 0.000965854 0.633031)
(-0.000326689 0.000889723 0.619151)
(-0.000438161 0.000776219 0.599334)
(-0.000517278 0.000636271 0.575093)
(0.00121538 0.00147164 0.847126)
(0.00104314 0.00177349 0.874407)
(0.00079174 0.00202879 0.896337)
(0.000498523 0.00220619 0.911452)
(0.000170342 0.00229913 0.919109)
(-0.000170338 0.00229913 0.919109)
(-0.000498519 0.00220619 0.911452)
(-0.000791741 0.00202879 0.896337)
(-0.00104314 0.00177349 0.874407)
(-0.00121539 0.00147163 0.847126)
(0.00203959 0.00245774 1.03327)
(0.00174997 0.00292533 1.05684)
(0.00133149 0.00332647 1.07547)
(0.000837417 0.00360708 1.08811)
(0.000285977 0.00375392 1.09443)
(-0.000285971 0.00375392 1.09443)
(-0.000837414 0.00360708 1.08811)
(-0.00133149 0.00332647 1.07547)
(-0.00174998 0.00292532 1.05684)
(-0.0020396 0.00245773 1.03327)
(0.00285547 0.00343361 1.15133)
(0.00243765 0.00403298 1.16881)
(0.00184962 0.00454942 1.18238)
(0.00115936 0.00490973 1.19143)
(0.000395258 0.00509747 1.1959)
(-0.000395251 0.00509747 1.1959)
(-0.00115936 0.00490973 1.19143)
(-0.00184963 0.00454942 1.18238)
(-0.00243766 0.00403296 1.16881)
(-0.00285549 0.00343359 1.15133)
(0.00356908 0.00428539 1.22194)
(0.00302464 0.00496227 1.23349)
(0.00228345 0.00554501 1.24229)
(0.00142497 0.00594917 1.24805)
(0.000484754 0.0061586 1.25087)
(-0.000484749 0.00615861 1.25087)
(-0.00142497 0.00594917 1.24805)
(-0.00228346 0.005545 1.24229)
(-0.00302465 0.00496225 1.23349)
(-0.0035691 0.00428536 1.22194)
(0.00411903 0.00493789 1.26159)
(0.00346122 0.00563075 1.26849)
(0.00259742 0.00622475 1.27366)
(0.00161311 0.00663411 1.277)
(0.000547454 0.00684512 1.27861)
(-0.000547451 0.00684512 1.27861)
(-0.00161311 0.00663411 1.277)
(-0.00259743 0.00622474 1.27366)
(-0.00346124 0.00563072 1.26849)
(-0.00411904 0.00493785 1.26159)
(0.00446971 0.00534486 1.28252)
(0.00372316 0.00599262 1.28626)
(0.00277735 0.00654495 1.28902)
(0.00171682 0.00692411 1.29077)
(0.000581285 0.00711889 1.2916)
(-0.000581283 0.00711889 1.2916)
(-0.00171682 0.00692411 1.29077)
(-0.00277737 0.00654493 1.28902)
(-0.00372316 0.00599257 1.28626)
(-0.00446971 0.00534482 1.28252)
(0.00460983 0.00547844 1.29279)
(0.00381 0.00602504 1.2946)
(0.00282774 0.00649097 1.29591)
(0.00174063 0.00681279 1.29671)
(0.000588099 0.0069778 1.29708)
(-0.000588102 0.00697779 1.29708)
(-0.00174064 0.00681277 1.29671)
(-0.00282775 0.00649092 1.29591)
(-0.00380997 0.00602499 1.2946)
(-0.0046098 0.0054784 1.29279)
(0.00456895 0.00534674 1.29725)
(0.00375402 0.00571109 1.29804)
(0.00276651 0.00605916 1.29857)
(0.00169642 0.00630164 1.29885)
(0.00057174 0.00642642 1.29896)
(-0.000571774 0.0064264 1.29896)
(-0.00169645 0.00630161 1.29885)
(-0.00276653 0.00605914 1.29857)
(-0.00375401 0.00571107 1.29804)
(-0.00456892 0.00534673 1.29725)
(1.18954e-05 1.20506e-05 0.210735)
(1.26562e-05 1.6327e-05 0.221689)
(9.53482e-06 2.18898e-05 0.230743)
(6.39656e-06 2.58921e-05 0.23717)
(2.21985e-06 2.80993e-05 0.240496)
(-2.22047e-06 2.80996e-05 0.240496)
(-6.39735e-06 2.58929e-05 0.23717)
(-9.53567e-06 2.18906e-05 0.230743)
(-1.26533e-05 1.63284e-05 0.221689)
(-1.18959e-05 1.20508e-05 0.210735)
(0.000179158 0.000206222 0.57294)
(0.000163439 0.000255148 0.597163)
(0.000127814 0.000302884 0.616977)
(8.2379e-05 0.000338083 0.63086)
(2.84288e-05 0.000357117 0.637975)
(-2.84305e-05 0.000357117 0.637975)
(-8.23813e-05 0.000338083 0.63086)
(-0.000127817 0.000302883 0.616977)
(-0.000163437 0.000255147 0.597164)
(-0.000179163 0.000206221 0.57294)
(0.000456351 0.000531479 0.844354)
(0.000408091 0.000647057 0.871653)
(0.000318796 0.000755389 0.893615)
(0.000204254 0.000835187 0.908762)
(7.03444e-05 0.000878063 0.916437)
(-7.03419e-05 0.000878063 0.916437)
(-0.000204252 0.000835188 0.908762)
(-0.000318797 0.000755387 0.893615)
(-0.000408089 0.000647056 0.871653)
(-0.00045636 0.000531475 0.844354)
(0.000801219 0.000937273 1.03036)
(0.000707419 0.00112426 1.05401)
(0.000550117 0.00129675 1.07273)
(0.0003507 0.00142313 1.08544)
(0.000120516 0.0014907 1.0918)
(-0.000120513 0.0014907 1.0918)
(-0.000350699 0.00142313 1.08544)
(-0.000550118 0.00129675 1.07273)
(-0.000707418 0.00112425 1.05401)
(-0.000801231 0.00093727 1.03036)
(0.00115534 0.00135275 1.14866)
(0.00100943 0.00159883 1.16629)
(0.00078058 0.00182396 1.18001)
(0.000495238 0.00198792 1.18918)
(0.000169807 0.00207516 1.19372)
(-0.000169805 0.00207516 1.19372)
(-0.000495238 0.00198791 1.18918)
(-0.000780581 0.00182395 1.18001)
(-0.00100942 0.00159882 1.16629)
(-0.00115535 0.00135275 1.14866)
(0.0014749 0.00172446 1.21978)
(0.00127628 0.00200731 1.23154)
(0.000980994 0.00226444 1.24053)
(0.000619435 0.00245067 1.24646)
(0.000211909 0.00254933 1.24937)
(-0.000211911 0.00254933 1.24937)
(-0.00061944 0.00245066 1.24646)
(-0.000980996 0.00226443 1.24053)
(-0.00127627 0.00200729 1.23154)
(-0.00147491 0.00172447 1.21978)
(0.00173011 0.00201611 1.26008)
(0.00148349 0.00230886 1.26724)
(0.00113328 0.00257327 1.27266)
(0.000712229 0.00276386 1.27619)
(0.000243092 0.00286446 1.2779)
(-0.000243101 0.00286446 1.2779)
(-0.000712241 0.00276385 1.27619)
(-0.00113328 0.00257325 1.27266)
(-0.00148347 0.00230885 1.26724)
(-0.00173012 0.00201614 1.26008)
(0.00190284 0.00220556 1.28174)
(0.00161777 0.00248084 1.28577)
(0.00122852 0.00272755 1.2888)
(0.000768552 0.00290466 1.29076)
(0.000261706 0.00299794 1.2917)
(-0.000261725 0.00299794 1.2917)
(-0.000768569 0.00290464 1.29076)
(-0.00122852 0.00272753 1.2888)
(-0.00161773 0.00248084 1.28577)
(-0.00190283 0.0022056 1.28174)
(0.00198785 0.00228447 1.29272)
(0.00167642 0.00251739 1.29484)
(0.00126592 0.00272359 1.29644)
(0.000788171 0.00287183 1.29745)
(0.000267761 0.00294958 1.29793)
(-0.000267793 0.00294957 1.29793)
(-0.000788186 0.00287182 1.29745)
(-0.0012659 0.00272358 1.29644)
(-0.00167635 0.0025174 1.29484)
(-0.00198782 0.0022845 1.29272)
(0.00199384 0.00226951 1.29784)
(0.00166769 0.00242351 1.29895)
(0.00124752 0.00257172 1.29976)
(0.000772727 0.00267724 1.30025)
(0.000261635 0.00273252 1.30047)
(-0.000261671 0.00273252 1.30047)
(-0.000772745 0.00267726 1.30025)
(-0.0012475 0.00257173 1.29976)
(-0.00166761 0.00242353 1.29895)
(-0.00199378 0.00226948 1.29784)
(7.776e-06 9.96114e-06 0.210513)
(6.2844e-06 1.25679e-05 0.221449)
(4.00931e-06 1.45612e-05 0.230484)
(2.42447e-06 1.5637e-05 0.236898)
(8.02258e-07 1.61674e-05 0.240216)
(-8.02136e-07 1.61675e-05 0.240216)
(-2.42405e-06 1.56375e-05 0.236898)
(-4.00855e-06 1.45619e-05 0.230484)
(-6.28062e-06 1.25699e-05 0.221449)
(-7.77553e-06 9.96222e-06 0.210513)
(8.46803e-05 0.000101386 0.572381)
(7.38817e-05 0.00012436 0.596574)
(5.61458e-05 0.000144414 0.616355)
(3.55912e-05 0.000158451 0.630214)
(1.21929e-05 0.000165889 0.637317)
(-1.21926e-05 0.00016589 0.637317)
(-3.5591e-05 0.000158452 0.630214)
(-5.61456e-05 0.000144413 0.616355)
(-7.38781e-05 0.00012436 0.596574)
(-8.46834e-05 0.000101386 0.572381)
(0.000211037 0.000251297 0.843627)
(0.000184264 0.000304437 0.870905)
(0.000141615 0.000351253 0.892842)
(8.98655e-05 0.000384718 0.907971)
(3.08176e-05 0.000402481 0.915637)
(-3.08127e-05 0.000402481 0.915637)
(-8.9861e-05 0.000384718 0.907971)
(-0.000141611 0.000351251 0.892842)
(-0.000184257 0.000304435 0.870905)
(-0.000211041 0.000251295 0.843627)
(0.000368322 0.000438137 1.02965)
(0.000320165 0.000524458 1.05331)
(0.000246203 0.000600707 1.07203)
(0.000155921 0.000655355 1.08473)
(5.34242e-05 0.000684299 1.0911)
(-5.34184e-05 0.000684299 1.0911)
(-0.000155916 0.000655353 1.08473)
(-0.000246199 0.000600702 1.07203)
(-0.000320157 0.000524453 1.05331)
(-0.000368325 0.000438135 1.02965)
(0.00053269 0.000633216 1.14814)
(0.000460092 0.000748379 1.16581)
(0.000352716 0.000850095 1.17956)
(0.000222639 0.000922788 1.18874)
(7.6165e-05 0.000961149 1.19329)
(-7.61591e-05 0.000961148 1.19329)
(-0.000222634 0.000922785 1.18874)
(-0.000352713 0.000850089 1.17956)
(-0.000460084 0.000748373 1.16581)
(-0.000532693 0.000633213 1.14814)
(0.000685244 0.000813619 1.21958)
(0.000587492 0.000948449 1.23142)
(0.00044825 0.00106726 1.24047)
(0.000281807 0.00115178 1.24644)
(9.62191e-05 0.00119619 1.24937)
(-9.62167e-05 0.00119618 1.24937)
(-0.000281804 0.00115177 1.24644)
(-0.000448248 0.00106726 1.24047)
(-0.000587486 0.000948443 1.23142)
(-0.000685248 0.000813613 1.21958)
(0.000811732 0.000961994 1.26031)
(0.000690459 0.00110458 1.26758)
(0.000523931 0.00122974 1.27309)
(0.000327957 0.00131833 1.27667)
(0.000111736 0.00136469 1.27842)
(-0.000111738 0.00136469 1.27842)
(-0.000327957 0.00131833 1.27667)
(-0.000523929 0.00122973 1.27309)
(-0.000690452 0.00110458 1.26758)
(-0.000811737 0.000961984 1.26031)
(0.000902024 0.00106561 1.28245)
(0.000761327 0.00120299 1.28662)
(0.000574551 0.00132307 1.28977)
(0.000358076 0.00140773 1.2918)
(0.000121727 0.0014519 1.29278)
(-0.000121733 0.0014519 1.29278)
(-0.000358078 0.00140772 1.2918)
(-0.000574542 0.00132306 1.28977)
(-0.000761306 0.00120298 1.28662)
(-0.00090202 0.00106559 1.28245)
(0.000951124 0.00111594 1.29394)
(0.000797075 0.00123558 1.29623)
(0.000598599 0.00133977 1.29795)
(0.000371434 0.00141346 1.29905)
(0.000125994 0.00145173 1.29958)
(-0.000126002 0.00145172 1.29958)
(-0.000371436 0.00141345 1.29905)
(-0.000598583 0.00133975 1.29795)
(-0.000797033 0.00123555 1.29623)
(-0.000951102 0.00111592 1.29394)
(0.000961962 0.00111409 1.29953)
(0.000800838 0.00119766 1.30084)
(0.000596695 0.00127696 1.3018)
(0.000368596 0.00133295 1.3024)
(0.000124659 0.00136198 1.30267)
(-0.000124676 0.00136198 1.30267)
(-0.000368608 0.00133294 1.3024)
(-0.000596689 0.00127696 1.3018)
(-0.000800816 0.00119765 1.30084)
(-0.000961925 0.00111409 1.29953)
(2.91469e-06 3.56804e-06 0.210377)
(2.5088e-06 4.58423e-06 0.221308)
(1.65489e-06 5.49171e-06 0.230339)
(1.0255e-06 6.03358e-06 0.23675)
(3.42322e-07 6.30992e-06 0.240067)
(-3.42763e-07 6.31012e-06 0.240067)
(-1.02565e-06 6.03413e-06 0.23675)
(-1.65498e-06 5.49223e-06 0.230339)
(-2.50634e-06 4.58528e-06 0.221308)
(-2.91389e-06 3.5688e-06 0.210377)
(3.5936e-05 4.24916e-05 0.572054)
(3.17814e-05 5.23603e-05 0.596239)
(2.43659e-05 6.12871e-05 0.616013)
(1.55217e-05 6.76529e-05 0.629869)
(5.32746e-06 7.10453e-05 0.63697)
(-5.32887e-06 7.10454e-05 0.63697)
(-1.5523e-05 6.7653e-05 0.629869)
(-2.4368e-05 6.12862e-05 0.616013)
(-3.17807e-05 5.23592e-05 0.596239)
(-3.59386e-05 4.24905e-05 0.572054)
(9.10502e-05 0.00010754 0.843196)
(8.014e-05 0.000130785 0.870471)
(6.1964e-05 0.000151682 0.892406)
(3.94613e-05 0.000166801 0.907534)
(1.35534e-05 0.000174862 0.9152)
(-1.3551e-05 0.000174862 0.9152)
(-3.94596e-05 0.000166801 0.907534)
(-6.19642e-05 0.000151681 0.892406)
(-8.0138e-05 0.000130783 0.870471)
(-9.1054e-05 0.000107537 0.843196)
(0.000160688 0.000189793 1.0292)
(0.000140505 0.000227937 1.05286)
(0.000108589 0.000262127 1.07159)
(6.89844e-05 0.000286894 1.0843)
(2.36698e-05 0.00030007 1.09067)
(-2.36666e-05 0.00030007 1.09067)
(-6.8982e-05 0.000286894 1.0843)
(-0.000108589 0.000262126 1.07159)
(-0.000140504 0.000227935 1.05286)
(-0.000160694 0.000189789 1.0292)
(0.000234332 0.000276535 1.14774)
(0.000203428 0.000327844 1.16543)
(0.000156697 0.000373731 1.1792)
(9.92165e-05 0.000406886 1.1884)
(3.39912e-05 0.000424471 1.19295)
(-3.39873e-05 0.00042447 1.19295)
(-9.92138e-05 0.000406886 1.1884)
(-0.000156698 0.000373729 1.1792)
(-0.000203427 0.00032784 1.16543)
(-0.000234339 0.000276528 1.14774)
(0.000303518 0.000357466 1.21928)
(0.000261499 0.00041799 1.23115)
(0.000200502 0.000471946 1.24024)
(0.000126469 0.000510788 1.24624)
(4.32486e-05 0.00053132 1.24918)
(-4.32461e-05 0.00053132 1.24918)
(-0.000126468 0.000510789 1.24624)
(-0.000200505 0.000471944 1.24024)
(-0.000261498 0.000417983 1.23115)
(-0.000303524 0.000357455 1.21928)
(0.000361753 0.00042466 1.26016)
(0.000309261 0.000489112 1.26748)
(0.000235897 0.000546305 1.27303)
(0.000148191 0.000587325 1.27665)
(5.0576e-05 0.00060894 1.27841)
(-5.05749e-05 0.000608941 1.27841)
(-0.000148194 0.000587327 1.27665)
(-0.000235904 0.000546303 1.27303)
(-0.000309262 0.000489103 1.26748)
(-0.000361754 0.000424646 1.26016)
(0.000404306 0.000472263 1.28246)
(0.00034307 0.000534777 1.2867)
(0.000260328 0.00058992 1.2899)
(0.000162867 0.000629334 1.29197)
(5.54686e-05 0.000650058 1.29297)
(-5.54683e-05 0.000650057 1.29297)
(-0.000162871 0.000629332 1.29197)
(-0.000260337 0.000589915 1.2899)
(-0.000343068 0.000534766 1.2867)
(-0.000404295 0.000472245 1.28246)
(0.000428804 0.000496719 1.29413)
(0.000361296 0.000551508 1.29649)
(0.000272817 0.000599421 1.29828)
(0.000169935 0.000633708 1.29943)
(5.77496e-05 0.00065165 1.29998)
(-5.77535e-05 0.000651644 1.29998)
(-0.000169938 0.000633695 1.29943)
(-0.000272817 0.000599405 1.29828)
(-0.000361283 0.000551487 1.29649)
(-0.000428783 0.000496692 1.29413)
(0.000436017 0.000499695 1.29989)
(0.000364669 0.000537998 1.30128)
(0.000273021 0.000574139 1.30231)
(0.000169242 0.000599791 1.30296)
(5.73275e-05 0.000613176 1.30326)
(-5.73461e-05 0.000613172 1.30326)
(-0.000169252 0.000599781 1.30296)
(-0.000273024 0.000574123 1.30231)
(-0.000364662 0.000537984 1.30128)
(-0.00043599 0.000499677 1.29989)
(1.25585e-06 1.58734e-06 0.210324)
(1.03811e-06 2.03694e-06 0.221252)
(6.57152e-07 2.40835e-06 0.23028)