/*--------------------------------*- C++ -*----------------------------------*\
| =========                 |                                                 |
| \\      /  F ield         | OpenFOAM: The Open Source CFD Toolbox           |
|  \\    /   O peration     | Version:  2106                                  |
|   \\  /    A nd           | Website:  www.openfoam.com                      |
|    \\/     M anipulation  |                                                 |
\*---------------------------------------------------------------------------*/
FoamFile
{
    version     2.0;
    format      ascii;
    arch        "LSB;label=32;scalar=64";
    class       volVectorField;
    location    "0.04";
    object      U;
}
// * * * * * * * * * * * * * * * * * * * * * * * * * * * * * * * * * * * * * //

dimensions      [0 1 -1 0 0 0 0];

internalField   nonuniform List<vector> 
10000
(
(0.022849 0.0266941 0.143972)
(0.0195472 0.0301105 0.149675)
(0.014651 0.0332779 0.154183)
(0.00909807 0.0355157 0.157265)
(0.00308509 0.0366792 0.158822)
(-0.00308509 0.0366792 0.158822)
(-0.00909807 0.0355157 0.157265)
(-0.014651 0.0332779 0.154183)
(-0.0195472 0.0301105 0.149675)
(-0.022849 0.0266941 0.143972)
(0.0558494 0.0660123 0.285267)
(0.047033 0.0737026 0.291402)
(0.034973 0.0805827 0.295977)
(0.021562 0.0853402 0.298989)
(0.00728527 0.0877876 0.300468)
(-0.00728527 0.0877876 0.300468)
(-0.021562 0.0853402 0.298989)
(-0.034973 0.0805827 0.295977)
(-0.047033 0.0737026 0.291402)
(-0.0558494 0.0660123 0.285267)
(0.0644638 0.0765424 0.347626)
(0.0536017 0.0838475 0.351289)
(0.0394397 0.0904605 0.353749)
(0.0241304 0.0949332 0.355267)
(0.0081219 0.0972093 0.355973)
(-0.0081219 0.0972093 0.355973)
(-0.0241304 0.0949332 0.355267)
(-0.0394397 0.0904605 0.353749)
(-0.0536017 0.0838475 0.351289)
(-0.0644638 0.0765424 0.347626)
(0.0611362 0.0727437 0.37308)
(0.0503875 0.0782067 0.374451)
(0.0367504 0.0833693 0.375057)
(0.0223417 0.0867841 0.375322)
(0.00749651 0.0885045 0.375398)
(-0.00749651 0.0885045 0.375398)
(-0.0223417 0.0867841 0.375322)
(-0.0367504 0.0833693 0.375057)
(-0.0503875 0.0782067 0.374451)
(-0.0611362 0.0727437 0.37308)
(0.0543419 0.0648183 0.381693)
(0.0445203 0.0684911 0.38157)
(0.0322583 0.0722642 0.381015)
(0.0195133 0.0747132 0.380524)
(0.00653236 0.0759357 0.380231)
(-0.00653236 0.0759357 0.380231)
(-0.0195133 0.0747132 0.380524)
(-0.0322583 0.0722642 0.381015)
(-0.0445203 0.0684911 0.38157)
(-0.0543419 0.0648183 0.381693)
(0.046833 0.0559905 0.382895)
(0.0382306 0.0582401 0.381991)
(0.0275761 0.0608885 0.380857)
(0.0166174 0.0625865 0.380006)
(0.00555358 0.0634268 0.379544)
(-0.00555358 0.0634268 0.379544)
(-0.0166174 0.0625865 0.380006)
(-0.0275761 0.0608885 0.380857)
(-0.0382306 0.0582401 0.381991)
(-0.046833 0.0559905 0.382895)
(0.0396875 0.0474976 0.381244)
(0.0323064 0.0486365 0.380048)
(0.0232297 0.0503672 0.378723)
(0.013955 0.0514776 0.377764)
(0.00465756 0.0520243 0.377258)
(-0.00465756 0.0520243 0.377258)
(-0.013955 0.0514776 0.377764)
(-0.0232297 0.0503672 0.378723)
(-0.0323064 0.0486365 0.380048)
(-0.0396875 0.0474976 0.381244)
(0.0332543 0.0397549 0.378853)
(0.0269932 0.0400472 0.377655)
(0.0193715 0.041014 0.376367)
(0.0116106 0.041658 0.375444)
(0.00387118 0.0419769 0.374965)
(-0.00387119 0.0419769 0.374965)
(-0.0116106 0.041658 0.375444)
(-0.0193715 0.041014 0.376367)
(-0.0269933 0.0400472 0.377655)
(-0.0332543 0.0397549 0.378853)
(0.0276682 0.0329513 0.376614)
(0.0224016 0.0325832 0.375549)
(0.0160435 0.0329206 0.374419)
(0.00960433 0.0331837 0.373611)
(0.00319918 0.0333269 0.373194)
(-0.0031992 0.0333269 0.373194)
(-0.00960435 0.0331837 0.373611)
(-0.0160435 0.0329206 0.374419)
(-0.0224016 0.0325832 0.375549)
(-0.0276682 0.0329513 0.376614)
(0.0231249 0.0269286 0.374849)
(0.0186138 0.0260281 0.373916)
(0.0132809 0.0259515 0.372981)
(0.00792858 0.0259757 0.372323)
(0.00264058 0.0260002 0.371987)
(-0.00264062 0.0260001 0.371987)
(-0.0079286 0.0259757 0.372323)
(-0.013281 0.0259515 0.372981)
(-0.0186138 0.0260281 0.373916)
(-0.0231249 0.0269286 0.374849)
(0.00441679 0.00572159 0.155795)
(0.00362527 0.00700585 0.162677)
(0.00271647 0.00797063 0.168326)
(0.00170408 0.00861697 0.172241)
(0.000581456 0.00894923 0.174237)
(-0.000581457 0.00894923 0.174237)
(-0.00170408 0.00861697 0.172241)
(-0.00271647 0.00797063 0.168326)
(-0.00362527 0.00700585 0.162677)
(-0.0044168 0.00572159 0.155795)
(0.0143911 0.0179664 0.33314)
(0.0119782 0.0213619 0.342212)
(0.00898005 0.0240485 0.34949)
(0.00560249 0.0258646 0.354406)
(0.00190595 0.0267961 0.356866)
(-0.00190595 0.0267961 0.356866)
(-0.0056025 0.0258646 0.354406)
(-0.00898006 0.0240485 0.34949)
(-0.0119782 0.0213619 0.342212)
(-0.0143911 0.0179664 0.33314)
(0.0218927 0.0270629 0.426346)
(0.0181003 0.0314551 0.433081)
(0.0134396 0.0349457 0.438334)
(0.00831266 0.037269 0.441766)
(0.00281522 0.0384473 0.443441)
(-0.00281522 0.0384473 0.443441)
(-0.00831266 0.037269 0.441766)
(-0.0134396 0.0349457 0.438334)
(-0.0181003 0.0314551 0.433081)
(-0.0218927 0.0270629 0.426346)
(0.0259397 0.0319614 0.47092)
(0.0212379 0.0364179 0.474487)
(0.0156033 0.0399613 0.477136)
(0.00957084 0.0422677 0.478763)
(0.00322753 0.0434228 0.479516)
(-0.00322754 0.0434228 0.479516)
(-0.00957085 0.0422677 0.478763)
(-0.0156033 0.0399613 0.477136)
(-0.0212379 0.0364179 0.474487)
(-0.0259397 0.0319613 0.47092)
(0.0273437 0.0336629 0.488865)
(0.0221853 0.0377159 0.489856)
(0.0161467 0.04095 0.490449)
(0.00983154 0.0430047 0.490698)
(0.00330342 0.0440202 0.490764)
(-0.00330342 0.0440202 0.490764)
(-0.00983154 0.0430047 0.490698)
(-0.0161467 0.04095 0.490449)
(-0.0221853 0.0377159 0.489856)
(-0.0273437 0.0336629 0.488865)
(0.0270981 0.0333776 0.493143)
(0.0217961 0.0368423 0.492475)
(0.0157296 0.0396173 0.491778)
(0.00951356 0.0413395 0.491188)
(0.00318623 0.0421784 0.490846)
(-0.00318623 0.0421784 0.490846)
(-0.00951357 0.0413396 0.491188)
(-0.0157296 0.0396173 0.491778)
(-0.0217961 0.0368423 0.492475)
(-0.0270981 0.0333776 0.493143)
(0.0258372 0.0318618 0.491093)
(0.0205959 0.0346867 0.489565)
(0.0147466 0.0369429 0.488216)
(0.00886383 0.0383128 0.487217)
(0.00295973 0.0389706 0.486683)
(-0.00295974 0.0389706 0.486683)
(-0.00886384 0.0383128 0.487217)
(-0.0147466 0.0369429 0.488216)
(-0.0205959 0.0346867 0.489565)
(-0.0258372 0.0318618 0.491093)
(0.0239544 0.0295761 0.486637)
(0.0189047 0.0317496 0.484801)
(0.0134377 0.033464 0.483232)
(0.00803321 0.0344911 0.482106)
(0.0026754 0.0349793 0.481517)
(-0.00267541 0.0349793 0.481517)
(-0.00803323 0.0344911 0.482106)
(-0.0134377 0.033464 0.483232)
(-0.0189047 0.0317496 0.484801)
(-0.0239544 0.0295761 0.486637)
(0.0216459 0.0267001 0.48174)
(0.0169394 0.0281942 0.479902)
(0.0119677 0.0293936 0.47835)
(0.00713015 0.0301194 0.477252)
(0.00237001 0.0304717 0.476686)
(-0.00237003 0.0304717 0.476686)
(-0.00713017 0.0301194 0.477252)
(-0.0119677 0.0293935 0.47835)
(-0.0169395 0.0281942 0.479902)
(-0.0216459 0.0267001 0.48174)
(0.0192125 0.0232254 0.477403)
(0.0149668 0.0239024 0.475619)
(0.0105508 0.0246734 0.47415)
(0.00627256 0.0251923 0.473134)
(0.00208531 0.0254521 0.472616)
(-0.00208534 0.0254521 0.472616)
(-0.00627258 0.0251923 0.473134)
(-0.0105508 0.0246734 0.47415)
(-0.0149668 0.0239024 0.475619)
(-0.0192125 0.0232254 0.477403)
(0.000131233 5.31837e-05 0.121101)
(0.000229138 7.95446e-05 0.127081)
(0.000213682 0.000179585 0.132109)
(0.000154279 0.000270109 0.135656)
(5.59078e-05 0.000323684 0.137483)
(-5.5908e-05 0.000323686 0.137483)
(-0.000154281 0.00027011 0.135656)
(-0.000213682 0.000179585 0.132109)
(-0.000229139 7.95433e-05 0.127081)
(-0.000131237 5.31817e-05 0.121101)
(0.00287198 0.00317759 0.279552)
(0.00273953 0.0038221 0.288934)
(0.00219906 0.00454443 0.296719)
(0.00142994 0.00510274 0.302115)
(0.00049581 0.00540837 0.304858)
(-0.000495813 0.00540836 0.304858)
(-0.00142994 0.00510274 0.302115)
(-0.00219907 0.00454444 0.296719)
(-0.00273954 0.0038221 0.288934)
(-0.00287198 0.00317759 0.279552)
(0.00596116 0.00680034 0.374569)
(0.00543095 0.00798377 0.382926)
(0.00426 0.00920671 0.389768)
(0.00272401 0.0101226 0.394427)
(0.000937054 0.0106156 0.396764)
(-0.000937055 0.0106156 0.396764)
(-0.00272402 0.0101226 0.394427)
(-0.00426 0.00920671 0.389768)
(-0.00543095 0.00798377 0.382926)
(-0.00596117 0.00680034 0.374569)
(0.00871928 0.0100865 0.427454)
(0.00774517 0.0115836 0.43327)
(0.00598209 0.0130896 0.437982)
(0.00378251 0.0141932 0.441135)
(0.00129419 0.0147803 0.442693)
(-0.00129419 0.0147803 0.442693)
(-0.00378252 0.0141932 0.441135)
(-0.0059821 0.0130896 0.437982)
(-0.00774517 0.0115836 0.43327)
(-0.00871929 0.0100865 0.427454)
(0.0106078 0.0123521 0.454334)
(0.0092695 0.0139033 0.457661)
(0.00708045 0.015463 0.460337)
(0.00444052 0.0165894 0.462092)
(0.0015134 0.0171838 0.462943)
(-0.00151341 0.0171838 0.462943)
(-0.00444052 0.0165894 0.462092)
(-0.00708045 0.015463 0.460337)
(-0.0092695 0.0139033 0.457661)
(-0.0106078 0.0123521 0.454334)
(0.0115954 0.0135334 0.466236)
(0.010012 0.0149428 0.46767)
(0.00758407 0.0163857 0.468825)
(0.00472629 0.0174199 0.469558)
(0.00160597 0.0179626 0.469902)
(-0.00160597 0.0179626 0.469902)
(-0.00472629 0.0174199 0.469558)
(-0.00758407 0.0163857 0.468825)
(-0.010012 0.0149428 0.46767)
(-0.0115954 0.0135334 0.466236)
(0.0118366 0.0138048 0.470002)
(0.010125 0.0149556 0.470208)
(0.0076204 0.0161723 0.470387)
(0.00472474 0.0170441 0.470475)
(0.00160153 0.0175004 0.470502)
(-0.00160154 0.0175004 0.470502)
(-0.00472474 0.0170441 0.470475)
(-0.00762041 0.0161723 0.470387)
(-0.010125 0.0149556 0.470208)
(-0.0118366 0.0138048 0.470002)
(0.0115248 0.0133954 0.469712)
(0.00977664 0.0142273 0.469216)
(0.00731954 0.0151496 0.468837)
(0.00451895 0.0158186 0.46856)
(0.0015286 0.0161691 0.46841)
(-0.00152861 0.0161691 0.46841)
(-0.00451896 0.0158186 0.46856)
(-0.00731955 0.0151496 0.468837)
(-0.00977666 0.0142273 0.469216)
(-0.0115248 0.0133953 0.469712)
(0.010836 0.0125187 0.467672)
(0.00912972 0.0130055 0.466817)
(0.00679631 0.0136068 0.466148)
(0.00418109 0.0140527 0.465679)
(0.00141121 0.0142907 0.465437)
(-0.00141122 0.0142907 0.465437)
(-0.0041811 0.0140527 0.465679)
(-0.00679632 0.0136068 0.466148)
(-0.00912973 0.0130055 0.466817)
(-0.010836 0.0125187 0.467672)
(0.0100095 0.0113497 0.465204)
(0.0083413 0.0114884 0.464142)
(0.00616501 0.0117907 0.463305)
(0.00377049 0.0120318 0.462729)
(0.0012704 0.012161 0.462436)
(-0.00127042 0.012161 0.462436)
(-0.0037705 0.0120318 0.462729)
(-0.00616502 0.0117907 0.463305)
(-0.00834132 0.0114884 0.464142)
(-0.0100095 0.0113496 0.465204)
(0.000254002 0.000342643 0.120353)
(0.00019469 0.000421478 0.126041)
(0.000131809 0.000471506 0.130752)
(7.8891e-05 0.000498436 0.134056)
(2.63123e-05 0.000511055 0.135754)
(-2.63127e-05 0.000511057 0.135754)
(-7.88917e-05 0.000498437 0.134056)
(-0.00013181 0.000471506 0.130752)
(-0.000194691 0.000421478 0.126041)
(-0.000254005 0.000342641 0.120353)
(0.00126376 0.00158327 0.278907)
(0.00105882 0.0019162 0.287967)
(0.000786239 0.00217872 0.295361)
(0.000490505 0.00235252 0.300457)
(0.000166979 0.00244181 0.303042)
(-0.000166981 0.00244181 0.303042)
(-0.000490507 0.00235252 0.300457)
(-0.000786242 0.00217872 0.295361)
(-0.00105883 0.0019162 0.287967)
(-0.00126377 0.00158327 0.278907)
(0.00258282 0.00318393 0.3759)
(0.00218662 0.00378616 0.384183)
(0.00163976 0.00428174 0.39083)
(0.0010239 0.00461669 0.395327)
(0.000348541 0.00478951 0.397577)
(-0.000348542 0.00478951 0.397577)
(-0.0010239 0.00461669 0.395327)
(-0.00163976 0.00428175 0.39083)
(-0.00218662 0.00378616 0.384183)
(-0.00258282 0.00318392 0.3759)
(0.0038791 0.0047614 0.431937)
(0.00327903 0.00556963 0.437952)
(0.00245644 0.00624928 0.442697)
(0.00152868 0.00670832 0.445843)
(0.000519437 0.0069443 0.447392)
(-0.000519439 0.0069443 0.447392)
(-0.00152868 0.00670832 0.445843)
(-0.00245645 0.00624928 0.442697)
(-0.00327904 0.00556963 0.437952)
(-0.00387911 0.0047614 0.431937)
(0.00493678 0.0060544 0.462363)
(0.00415038 0.00697136 0.466094)
(0.00309474 0.00775234 0.46897)
(0.00191671 0.00827594 0.470829)
(0.000649739 0.00854324 0.471727)
(-0.00064974 0.00854324 0.471727)
(-0.00191671 0.00827594 0.470829)
(-0.00309474 0.00775234 0.46897)
(-0.00415038 0.00697136 0.466094)
(-0.00493679 0.0060544 0.462363)
(0.00568648 0.00697608 0.477753)
(0.00474487 0.00790746 0.479704)
(0.0035163 0.00870739 0.481156)
(0.00216607 0.00923868 0.482056)
(0.000732338 0.0095077 0.482475)
(-0.000732339 0.0095077 0.482475)
(-0.00216607 0.00923868 0.482056)
(-0.0035163 0.00870739 0.481156)
(-0.00474488 0.00790747 0.479704)
(-0.00568649 0.00697609 0.477753)
(0.00612053 0.00751321 0.484704)
(0.00506237 0.00838242 0.485475)
(0.00372668 0.00913223 0.485993)
(0.00228309 0.00962596 0.486276)
(0.000769831 0.00987411 0.486391)
(-0.000769834 0.00987411 0.486391)
(-0.00228309 0.00962596 0.486276)
(-0.00372668 0.00913223 0.485993)
(-0.00506237 0.00838242 0.485475)
(-0.00612054 0.00751322 0.484704)
(0.00626029 0.00768456 0.487208)
(0.00512744 0.008431 0.487282)
(0.00375048 0.00907578 0.487256)
(0.00228608 0.00950019 0.487183)
(0.000768919 0.00971246 0.487126)
(-0.000768925 0.00971246 0.487126)
(-0.00228608 0.00950019 0.487183)
(-0.00375049 0.00907578 0.487256)
(-0.00512744 0.00843101 0.487282)
(-0.00626029 0.00768456 0.487208)
(0.00613326 0.00750288 0.487531)
(0.00498402 0.00807559 0.487238)
(0.00362484 0.00858291 0.486928)
(0.00220157 0.00892093 0.486672)
(0.000738829 0.00909183 0.486529)
(-0.000738839 0.00909183 0.486529)
(-0.00220158 0.00892093 0.486672)
(-0.00362484 0.00858291 0.486928)
(-0.00498401 0.00807559 0.487238)
(-0.00613325 0.00750288 0.487531)
(0.00583574 0.00697118 0.486926)
(0.00471216 0.00731213 0.486443)
(0.00341355 0.0076734 0.485998)
(0.00206577 0.00792648 0.485664)
(0.000692641 0.00805548 0.485486)
(-0.000692654 0.00805548 0.485486)
(-0.00206578 0.00792648 0.485664)
(-0.00341355 0.0076734 0.485998)
(-0.00471216 0.00731213 0.486443)
(-0.00583572 0.00697118 0.486926)
(3.00556e-05 2.61521e-05 0.117818)
(3.68127e-05 3.55888e-05 0.123466)
(3.07451e-05 5.13327e-05 0.12816)
(2.11218e-05 6.39648e-05 0.131461)
(7.4864e-06 7.11094e-05 0.133159)
(-7.48642e-06 7.11096e-05 0.133159)
(-2.11219e-05 6.39645e-05 0.131461)
(-3.07461e-05 5.13322e-05 0.12816)
(-3.68141e-05 3.55883e-05 0.123466)
(-3.00575e-05 2.6151e-05 0.117818)
(0.000348438 0.000392611 0.273795)
(0.000328882 0.000482583 0.282877)
(0.000261591 0.000578108 0.290329)
(0.000169842 0.000650515 0.295483)
(5.88575e-05 0.000689989 0.298101)
(-5.88581e-05 0.00068999 0.298101)
(-0.000169843 0.000650515 0.295483)
(-0.000261594 0.000578107 0.290329)
(-0.000328885 0.00048258 0.282877)
(-0.000348442 0.000392608 0.273795)
(0.000826822 0.000956643 0.369855)
(0.000752583 0.00115101 0.378279)
(0.000591237 0.00134405 0.385093)
(0.000379464 0.00148779 0.389731)
(0.000130817 0.00156525 0.392059)
(-0.000130817 0.00156525 0.392059)
(-0.000379465 0.00148779 0.389731)
(-0.000591239 0.00134405 0.385093)
(-0.000752586 0.00115101 0.378279)
(-0.000826826 0.000956639 0.369855)
(0.00136586 0.00159841 0.426025)
(0.00121892 0.0018864 0.4323)
(0.00094824 0.00216635 0.437317)
(0.000603698 0.00237204 0.44068)
(0.000207336 0.00248201 0.442348)
(-0.000207337 0.00248201 0.442348)
(-0.0006037 0.00237204 0.44068)
(-0.000948244 0.00216635 0.437317)
(-0.00121893 0.0018864 0.4323)
(-0.00136586 0.00159841 0.426025)
(0.0018577 0.00218543 0.457171)
(0.00163535 0.00253306 0.461252)
(0.0012617 0.00286939 0.464481)
(0.000798039 0.00311411 0.466613)
(0.000273242 0.0032441 0.467658)
(-0.000273241 0.0032441 0.467658)
(-0.00079804 0.00311411 0.466613)
(-0.0012617 0.00286939 0.464481)
(-0.00163536 0.00253306 0.461252)
(-0.00185771 0.00218543 0.457171)
(0.00224581 0.00264669 0.473542)
(0.00195499 0.00301336 0.475895)
(0.0014973 0.00336943 0.477741)
(0.000941642 0.00362688 0.478944)
(0.000321538 0.00376291 0.479526)
(-0.000321537 0.00376292 0.479526)
(-0.000941644 0.00362688 0.478944)
(-0.0014973 0.00336943 0.477741)
(-0.001955 0.00301336 0.475895)
(-0.00224581 0.00264668 0.473542)
(0.00250667 0.00295151 0.481521)
(0.00216036 0.00329973 0.482704)
(0.00164367 0.00364039 0.483627)
(0.00102834 0.00388603 0.484216)
(0.000350259 0.00401538 0.484497)
(-0.000350259 0.00401538 0.484497)
(-0.00102834 0.00388603 0.484216)
(-0.00164368 0.0036404 0.483627)
(-0.00216037 0.00329973 0.482704)
(-0.00250667 0.00295151 0.481521)
(0.00263799 0.00309511 0.484979)
(0.00225192 0.00339401 0.485447)
(0.00170297 0.00368866 0.485805)
(0.00106037 0.00390203 0.486023)
(0.000360314 0.00401421 0.486123)
(-0.000360314 0.00401421 0.486123)
(-0.00106038 0.00390203 0.486023)
(-0.00170298 0.00368866 0.485805)
(-0.00225193 0.00339401 0.485447)
(-0.00263799 0.0030951 0.484979)
(0.00265107 0.00308862 0.48612)
(0.00224463 0.00331394 0.486181)
(0.00168653 0.00354087 0.486217)
(0.00104561 0.00370668 0.486224)
(0.000354386 0.00379445 0.48622)
(-0.000354388 0.00379445 0.48622)
(-0.00104561 0.00370667 0.486224)
(-0.00168653 0.00354087 0.486217)
(-0.00224464 0.00331393 0.486181)
(-0.00265108 0.00308862 0.48612)
(0.00258537 0.00295692 0.486168)
(0.00216625 0.00308554 0.486008)
(0.00161434 0.003235 0.485865)
(0.000994897 0.00334648 0.485753)
(0.000336394 0.00340543 0.485691)
(-0.000336398 0.00340543 0.485691)
(-0.000994902 0.00334647 0.485753)
(-0.00161434 0.003235 0.485865)
(-0.00216625 0.00308554 0.486008)
(-0.00258537 0.00295692 0.486168)
(2.59492e-05 3.29282e-05 0.117475)
(2.14711e-05 4.07272e-05 0.123085)
(1.47302e-05 4.67228e-05 0.127737)
(8.96563e-06 5.01633e-05 0.131006)
(3.01074e-06 5.18624e-05 0.132687)
(-3.01048e-06 5.18623e-05 0.132687)
(-8.96593e-06 5.01634e-05 0.131006)
(-1.47307e-05 4.67232e-05 0.127737)
(-2.14724e-05 4.07274e-05 0.123085)
(-2.59508e-05 3.29272e-05 0.117475)
(0.000171023 0.000207745 0.273048)
(0.000148357 0.000252327 0.282075)
(0.000111883 0.000290685 0.289462)
(7.04271e-05 0.000316987 0.294567)
(2.40707e-05 0.000330769 0.29716)
(-2.40705e-05 0.000330767 0.29716)
(-7.04278e-05 0.000316987 0.294567)
(-0.000111885 0.000290685 0.289462)
(-0.00014836 0.000252327 0.282075)
(-0.000171026 0.000207744 0.273048)
(0.000388618 0.000469906 0.369037)
(0.000337647 0.000562599 0.377432)
(0.000257153 0.000643846 0.384202)
(0.000162064 0.00070074 0.388805)
(5.54154e-05 0.000730634 0.391115)
(-5.54148e-05 0.000730634 0.391115)
(-0.000162064 0.00070074 0.388805)
(-0.000257154 0.000643847 0.384202)
(-0.000337649 0.000562598 0.377432)
(-0.000388621 0.000469904 0.369037)
(0.000636524 0.000770247 0.425451)
(0.000550906 0.000909384 0.431746)
(0.000419596 0.00103281 0.43676)
(0.00026385 0.00111945 0.440116)
(9.01183e-05 0.00116486 0.44178)
(-9.01179e-05 0.00116486 0.44178)
(-0.000263851 0.00111945 0.440116)
(-0.000419597 0.00103281 0.43676)
(-0.000550908 0.000909383 0.431746)
(-0.000636529 0.000770245 0.425451)
(0.000873899 0.00105916 0.457075)
(0.000751901 0.00123279 0.46123)
(0.000570734 0.00138823 0.464499)
(0.000357584 0.00149693 0.466655)
(0.000121919 0.00155365 0.467712)
(-0.000121917 0.00155365 0.467712)
(-0.000357583 0.00149693 0.466655)
(-0.000570734 0.00138823 0.464499)
(-0.000751903 0.00123279 0.46123)
(-0.000873903 0.00105916 0.457075)
(0.00107575 0.00130562 0.474074)
(0.000918833 0.00149697 0.476548)
(0.000693952 0.00166954 0.478475)
(0.000432877 0.00178962 0.479729)
(0.000147279 0.00185195 0.480336)
(-0.000147278 0.00185195 0.480336)
(-0.000432877 0.00178962 0.479729)
(-0.000693952 0.00166954 0.478475)
(-0.000918833 0.00149697 0.476548)
(-0.00107575 0.00130562 0.474074)
(0.00122689 0.00149019 0.48276)
(0.00103924 0.00168151 0.484102)
(0.00078043 0.00185506 0.485136)
(0.000484538 0.00197532 0.485799)
(0.000164478 0.00203745 0.486116)
(-0.000164478 0.00203745 0.486116)
(-0.000484539 0.00197532 0.485799)
(-0.00078043 0.00185505 0.485136)
(-0.00103924 0.00168152 0.484102)
(-0.00122689 0.00149019 0.48276)
(0.00131956 0.00160153 0.486953)
(0.0011077 0.00177603 0.487604)
(0.000827131 0.001935 0.488096)
(0.000511191 0.00204542 0.488403)
(0.000173127 0.00210227 0.488547)
(-0.000173129 0.00210227 0.488547)
(-0.000511194 0.00204542 0.488403)
(-0.000827131 0.001935 0.488096)
(-0.00110769 0.00177604 0.487604)
(-0.00131955 0.00160153 0.486953)
(0.00135166 0.00163226 0.488804)
(0.00112624 0.00177457 0.489065)
(0.000836316 0.00190697 0.489253)
(0.000514901 0.00199986 0.489361)
(0.000173968 0.00204793 0.489408)
(-0.000173972 0.00204793 0.489408)
(-0.000514905 0.00199986 0.489361)
(-0.000836315 0.00190698 0.489253)
(-0.00112623 0.00177458 0.489065)
(-0.00135166 0.00163227 0.488804)
(0.00133839 0.0015789 0.489481)
(0.00110725 0.00167263 0.489543)
(0.000817239 0.00177147 0.489572)
(0.000500869 0.00184253 0.489576)
(0.000168918 0.00187937 0.489573)
(-0.000168921 0.00187937 0.489573)
(-0.00050087 0.00184253 0.489576)
(-0.000817233 0.00177147 0.489572)
(-0.00110724 0.00167264 0.489543)
(-0.00133837 0.0015789 0.489481)
(8.02237e-06 8.99183e-06 0.117169)
(7.76553e-06 1.14105e-05 0.122771)
(5.81194e-06 1.40783e-05 0.127418)
(3.73747e-06 1.59305e-05 0.130683)
(1.2859e-06 1.69206e-05 0.132362)
(-1.2861e-06 1.69208e-05 0.132362)
(-3.73769e-06 1.59308e-05 0.130683)
(-5.81217e-06 1.40782e-05 0.127418)
(-7.76621e-06 1.14101e-05 0.122771)
(-8.02358e-06 8.99081e-06 0.117169)
(6.61681e-05 7.73579e-05 0.272394)
(5.99658e-05 9.46419e-05 0.281416)
(4.64545e-05 0.000111257 0.288801)
(2.96922e-05 0.000123294 0.293906)
(1.0216e-05 0.000129738 0.296499)
(-1.02161e-05 0.000129739 0.296499)
(-2.96928e-05 0.000123295 0.293906)
(-4.64558e-05 0.000111257 0.288801)
(-5.99678e-05 9.46413e-05 0.281416)
(-6.61706e-05 7.73551e-05 0.272394)
(0.000156746 0.000185186 0.368233)
(0.000139783 0.000223061 0.376637)
(0.000108362 0.000258543 0.383417)
(6.90093e-05 0.000284316 0.388029)
(2.3708e-05 0.000298068 0.390344)
(-2.37075e-05 0.000298068 0.390344)
(-6.90093e-05 0.000284316 0.388029)
(-0.000108363 0.000258544 0.383417)
(-0.000139785 0.000223061 0.376637)
(-0.000156749 0.000185183 0.368233)
(0.000264073 0.000313813 0.424647)
(0.000232972 0.000372352 0.430968)
(0.000179989 0.000426932 0.43601)
(0.00011417 0.000466445 0.439388)
(3.91523e-05 0.000487449 0.441064)
(-3.91521e-05 0.00048745 0.441064)
(-0.000114171 0.000466445 0.439388)
(-0.00017999 0.000426932 0.43601)
(-0.000232975 0.000372351 0.430968)
(-0.000264076 0.000313809 0.424647)
(0.000370208 0.000441274 0.456375)
(0.000323732 0.000515855 0.460577)
(0.000248953 0.000585559 0.463892)
(0.000157269 0.0006358 0.466084)
(5.38302e-05 0.000662399 0.467161)
(-5.38287e-05 0.0006624 0.467161)
(-0.000157268 0.000635801 0.466084)
(-0.000248954 0.000585561 0.463892)
(-0.000323734 0.000515854 0.460577)
(-0.000370211 0.000441271 0.456375)
(0.000463362 0.000552855 0.473548)
(0.000401787 0.000636369 0.476088)
(0.000307382 0.000714826 0.478076)
(0.000193351 0.000771174 0.479378)
(6.60478e-05 0.00080089 0.480011)
(-6.60461e-05 0.00080089 0.480011)
(-0.00019335 0.000771176 0.479378)
(-0.000307384 0.000714828 0.478076)
(-0.00040179 0.000636368 0.476088)
(-0.000463364 0.000552852 0.473548)
(0.000535906 0.000638834 0.482449)
(0.000460754 0.000723326 0.483869)
(0.000350593 0.000803126 0.484977)
(0.000219572 0.000860337 0.485696)
(7.48461e-05 0.000890417 0.486043)
(-7.48444e-05 0.000890417 0.486043)
(-0.000219571 0.000860339 0.485696)
(-0.000350595 0.000803127 0.484977)
(-0.000460758 0.000723323 0.483869)
(-0.000535907 0.000638831 0.482449)
(0.000583533 0.000693307 0.48687)
(0.000497349 0.000771008 0.487608)
(0.000376417 0.000844646 0.488181)
(0.000234733 0.000897614 0.48855)
(7.98402e-05 0.00092541 0.488726)
(-7.9839e-05 0.00092541 0.488726)
(-0.000234732 0.000897614 0.48855)
(-0.000376419 0.000844645 0.488181)
(-0.000497352 0.000771002 0.487608)
(-0.00058353 0.000693303 0.48687)
(0.000605019 0.000713474 0.488944)
(0.000511722 0.000777205 0.489296)
(0.000385069 0.000838369 0.489568)
(0.000239152 0.000882725 0.489739)
(8.11445e-05 0.000906086 0.48982)
(-8.11451e-05 0.000906085 0.48982)
(-0.000239152 0.000882721 0.489739)
(-0.000385071 0.00083836 0.489568)
(-0.000511719 0.000777196 0.489296)
(-0.000605018 0.000713466 0.488944)
(0.000605933 0.000700492 0.48982)
(0.000508132 0.000742221 0.489978)
(0.000379311 0.000786831 0.490092)
(0.000234326 0.000819525 0.490159)
(7.9309e-05 0.000836747 0.490187)
(-7.93131e-05 0.000836745 0.490187)
(-0.000234331 0.00081952 0.490159)
(-0.000379312 0.000786824 0.490092)
(-0.000508132 0.000742214 0.489978)
(-0.000605921 0.000700483 0.48982)
(3.98271e-06 4.77063e-06 0.117072)
(3.56612e-06 5.9661e-06 0.122669)
(2.55221e-06 7.07384e-06 0.12731)
(1.59781e-06 7.78044e-06 0.130571)
(5.43049e-07 8.14725e-06 0.132248)
(-5.43095e-07 8.14728e-06 0.132248)
(-1.59796e-06 7.78051e-06 0.130571)
(-2.55239e-06 7.07379e-06 0.12731)
(-3.56643e-06 5.96588e-06 0.122669)
(-3.98361e-06 4.7701e-06 0.117072)
(3.0568e-05 3.64051e-05 0.272182)
(2.71264e-05 4.4359e-05 0.281197)
(2.07397e-05 5.15918e-05 0.288574)
(1.3154e-05 5.66984e-05 0.293673)
(4.51007e-06 5.9407e-05 0.296263)
(-4.51021e-06 5.94068e-05 0.296263)
(-1.31542e-05 5.66979e-05 0.293673)
(-2.07402e-05 5.15908e-05 0.288574)
(-2.71274e-05 4.43576e-05 0.281197)
(-3.05699e-05 3.64034e-05 0.272182)
(7.19092e-05 8.59149e-05 0.367976)
(6.33537e-05 0.000103239 0.376377)
(4.87168e-05 0.000118933 0.383153)
(3.08763e-05 0.000130153 0.387762)
(1.05846e-05 0.000136104 0.390075)
(-1.05843e-05 0.000136104 0.390075)
(-3.0876e-05 0.000130153 0.387762)
(-4.87167e-05 0.000118932 0.383153)
(-6.33541e-05 0.000103238 0.376377)
(-7.19107e-05 8.59135e-05 0.367976)
(0.000121108 0.000145211 0.424405)
(0.000105977 0.00017218 0.430732)
(8.14139e-05 0.000196709 0.435776)
(5.14718e-05 0.000214257 0.439156)
(1.76251e-05 0.000223541 0.440833)
(-1.76253e-05 0.000223541 0.440833)
(-5.1472e-05 0.000214256 0.439156)
(-8.14143e-05 0.000196708 0.435776)
(-0.000105978 0.000172179 0.430732)
(-0.00012111 0.000145209 0.424405)
(0.000170593 0.000205063 0.456198)
(0.000148276 0.000239871 0.460415)
(0.000113532 0.000271727 0.463741)
(7.15421e-05 0.000294456 0.465941)
(2.4461e-05 0.000306439 0.467021)
(-2.44603e-05 0.000306439 0.467021)
(-7.15414e-05 0.000294456 0.465941)
(-0.000113532 0.000271727 0.463741)
(-0.000148275 0.000239871 0.460415)
(-0.000170594 0.000205062 0.456198)
(0.00021515 0.000258993 0.473472)
(0.000185653 0.000298611 0.476036)
(0.000141518 0.000335111 0.478044)
(8.88367e-05 0.000361073 0.47936)
(3.03197e-05 0.000374708 0.48)
(-3.03194e-05 0.000374708 0.48)
(-8.88364e-05 0.000361073 0.47936)
(-0.000141518 0.000335111 0.478044)
(-0.000185652 0.000298611 0.476036)
(-0.000215151 0.000258991 0.473472)
(0.000251077 0.000302301 0.482499)
(0.000214961 0.000343136 0.483953)
(0.000163035 0.000380979 0.485088)
(0.000101923 0.000407846 0.485826)
(3.47165e-05 0.000421909 0.486184)
(-3.47166e-05 0.00042191 0.486184)
(-0.000101923 0.000407847 0.485826)
(-0.000163036 0.00038098 0.485088)
(-0.000214961 0.000343136 0.483953)
(-0.000251078 0.000302296 0.482499)
(0.000275918 0.000331615 0.487061)
(0.000234279 0.000369967 0.487839)
(0.000176785 0.000405666 0.488446)
(0.00011006 0.000431088 0.488839)
(3.74096e-05 0.000444363 0.489028)
(-3.74094e-05 0.000444364 0.489028)
(-0.000110061 0.00043109 0.488839)
(-0.000176787 0.000405669 0.488446)
(-0.00023428 0.000369964 0.487839)
(-0.000275918 0.000331607 0.487061)
(0.000288507 0.000344556 0.48928)
(0.000243226 0.000376846 0.489678)
(0.000182574 0.000407369 0.489989)
(0.000113225 0.000429296 0.490187)
(3.8395e-05 0.000440775 0.490282)
(-3.83939e-05 0.000440775 0.490282)
(-0.000113224 0.000429297 0.490187)
(-0.000182577 0.000407368 0.489989)
(-0.000243225 0.000376843 0.489678)
(-0.000288513 0.000344547 0.48928)
(0.000291085 0.000340203 0.490292)
(0.000243641 0.00036238 0.490502)
(0.000181559 0.000385622 0.490661)
(0.000112048 0.000402518 0.490758)
(3.79059e-05 0.000411363 0.490803)
(-3.79048e-05 0.000411362 0.490803)
(-0.000112049 0.000402514 0.490758)
(-0.000181557 0.000385619 0.490661)
(-0.00024365 0.000362374 0.490502)
(-0.000291081 0.000340211 0.490292)
(1.70843e-06 2.00974e-06 0.117022)
(1.56508e-06 2.52385e-06 0.122617)
(1.13427e-06 3.02652e-06 0.127256)
(7.1513e-07 3.3559e-06 0.130516)
(2.43757e-07 3.52824e-06 0.132192)
(-2.43667e-07 3.52838e-06 0.132192)
(-7.1512e-07 3.35615e-06 0.130516)
(-1.13436e-06 3.0269e-06 0.127256)
(-1.56523e-06 2.52412e-06 0.122617)
(-1.70913e-06 2.00951e-06 0.117022)
(1.35205e-05 1.60052e-05 0.272072)
(1.20822e-05 1.95382e-05 0.281085)
(9.27895e-06 2.28071e-05 0.28846)
(5.8993e-06 2.51361e-05 0.293558)
(2.02454e-06 2.63748e-05 0.296147)
(-2.02505e-06 2.63748e-05 0.296147)
(-5.89976e-06 2.51359e-05 0.293558)
(-9.27941e-06 2.2807e-05 0.28846)
(-1.20829e-05 1.95378e-05 0.281085)
(-1.35221e-05 1.6005e-05 0.272072)
(3.20363e-05 3.81225e-05 0.36784)
(2.83514e-05 4.58925e-05 0.37624)
(2.18729e-05 5.3006e-05 0.383016)
(1.38896e-05 5.81252e-05 0.387625)
(4.76552e-06 6.08469e-05 0.389938)
(-4.7653e-06 6.08469e-05 0.389938)
(-1.38894e-05 5.81252e-05 0.387625)
(-2.18727e-05 5.30063e-05 0.383016)
(-2.83513e-05 4.58927e-05 0.37624)
(-3.20374e-05 3.81228e-05 0.36784)
(5.42913e-05 6.4868e-05 0.424269)
(4.76749e-05 7.70497e-05 0.430599)
(3.67302e-05 8.82194e-05 0.435646)
(2.32635e-05 9.6259e-05 0.439029)
(7.97251e-06 0.000100524 0.440707)
(-7.97259e-06 0.000100524 0.440707)
(-2.32635e-05 9.62589e-05 0.439029)
(-3.67302e-05 8.82194e-05 0.435646)
(-4.76747e-05 7.705e-05 0.430599)
(-5.42927e-05 6.48686e-05 0.424269)
(7.69047e-05 9.21097e-05 0.456083)
(6.70574e-05 0.00010794 0.460308)
(5.1493e-05 0.000122536 0.463641)
(3.25101e-05 0.000133018 0.465846)
(1.11257e-05 0.000138562 0.466929)
(-1.11248e-05 0.000138562 0.466929)
(-3.25091e-05 0.000133018 0.465846)
(-5.14921e-05 0.000122537 0.463641)
(-6.70556e-05 0.000107942 0.460308)
(-7.69047e-05 9.21111e-05 0.456083)
(9.75127e-05 0.000116902 0.473395)
(8.44136e-05 0.000135048 0.475971)
(6.45458e-05 0.000151887 0.47799)
(4.06041e-05 0.000163955 0.479313)
(1.38724e-05 0.000170316 0.479958)
(-1.38717e-05 0.000170316 0.479958)
(-4.06033e-05 0.000163955 0.479313)
(-6.4545e-05 0.000151888 0.47799)
(-8.4411e-05 0.00013505 0.475971)
(-9.75116e-05 0.000116904 0.473395)
(0.000114395 0.00013706 0.48247)
(9.82719e-05 0.000155895 0.48394)
(7.47874e-05 0.000173477 0.485089)
(4.68646e-05 0.000186065 0.485838)
(1.59812e-05 0.000192684 0.4862)