/*--------------------------------*- C++ -*----------------------------------*\
| =========                 |                                                 |
| \\      /  F ield         | OpenFOAM: The Open Source CFD Toolbox           |
|  \\    /   O peration     | Version:  2106                                  |
|   \\  /    A nd           | Website:  www.openfoam.com                      |
|    \\/     M anipulation  |                                                 |
\*---------------------------------------------------------------------------*/
FoamFile
{
    version     2.0;
    format      ascii;
    arch        "LSB;label=32;scalar=64";
    class       volVectorField;
    location    "0.84";
    object      U;
}
// * * * * * * * * * * * * * * * * * * * * * * * * * * * * * * * * * * * * * //

dimensions      [0 1 -1 0 0 0 0];

internalField   nonuniform List<vector> 
10000
(
(0.0625624 0.0737197 0.345088)
(0.0533582 0.0838399 0.359567)
(0.0398488 0.0929912 0.37093)
(0.0247207 0.0993735 0.378779)
(0.00837774 0.102673 0.382767)
(-0.00837775 0.102673 0.382767)
(-0.0247207 0.0993735 0.378779)
(-0.0398488 0.0929912 0.37093)
(-0.0533582 0.0838399 0.359567)
(-0.0625624 0.0737197 0.345088)
(0.172064 0.204135 0.727814)
(0.145244 0.231378 0.747463)
(0.108434 0.25534 0.762101)
(0.0670884 0.271927 0.771998)
(0.0227093 0.280483 0.776947)
(-0.0227093 0.280483 0.776947)
(-0.0670885 0.271927 0.771998)
(-0.108434 0.25534 0.762101)
(-0.145244 0.231378 0.747463)
(-0.172064 0.204135 0.727814)
(0.222645 0.26437 0.923719)
(0.185838 0.296082 0.939545)
(0.137854 0.323774 0.950609)
(0.0848691 0.342718 0.957911)
(0.0286574 0.352425 0.961493)
(-0.0286574 0.352425 0.961493)
(-0.0848691 0.342718 0.957911)
(-0.137854 0.323774 0.950609)
(-0.185838 0.296082 0.939545)
(-0.222645 0.26437 0.923719)
(0.237675 0.281762 1.02283)
(0.196439 0.311646 1.03333)
(0.144818 0.337794 1.04)
(0.0887442 0.355482 1.04426)
(0.0298981 0.364486 1.0463)
(-0.0298981 0.364486 1.0463)
(-0.0887443 0.355482 1.04426)
(-0.144819 0.337794 1.04)
(-0.196439 0.311646 1.03333)
(-0.237675 0.281762 1.02283)
(0.235747 0.27898 1.07118)
(0.193247 0.304986 1.07714)
(0.141716 0.327878 1.08026)
(0.0864948 0.34323 1.08214)
(0.0290841 0.350998 1.08299)
(-0.0290842 0.350998 1.08299)
(-0.0864949 0.34323 1.08214)
(-0.141716 0.327878 1.08026)
(-0.193247 0.304986 1.07714)
(-0.235747 0.27898 1.07118)
(0.22475 0.265482 1.09226)
(0.182839 0.286897 1.09484)
(0.133449 0.305899 1.09549)
(0.0811489 0.318569 1.09574)
(0.0272386 0.324943 1.09579)
(-0.0272387 0.324943 1.09579)
(-0.0811489 0.318569 1.09574)
(-0.133449 0.305899 1.09549)
(-0.182839 0.286897 1.09484)
(-0.22475 0.265482 1.09226)
(0.208423 0.245568 1.09887)
(0.168274 0.262152 1.09915)
(0.122268 0.277013 1.09824)
(0.0740896 0.286904 1.09748)
(0.0248274 0.291858 1.09704)
(-0.0248275 0.291858 1.09704)
(-0.0740897 0.286904 1.09748)
(-0.122268 0.277013 1.09824)
(-0.168274 0.262152 1.09915)
(-0.208424 0.245568 1.09887)
(0.189097 0.221962 1.09818)
(0.151495 0.233757 1.09701)
(0.109612 0.244466 1.09521)
(0.0662046 0.251628 1.0939)
(0.0221501 0.255215 1.09321)
(-0.0221502 0.255215 1.09321)
(-0.0662047 0.251628 1.0939)
(-0.109612 0.244466 1.09521)
(-0.151495 0.233757 1.09701)
(-0.189097 0.221962 1.09818)
(0.168302 0.196451 1.0942)
(0.133873 0.203644 1.09214)
(0.0964702 0.210326 1.08993)
(0.0580849 0.214924 1.08838)
(0.0194039 0.217247 1.08759)
(-0.019404 0.217247 1.08759)
(-0.0580849 0.214924 1.08838)
(-0.0964703 0.210326 1.08993)
(-0.133873 0.203644 1.09214)
(-0.168302 0.196451 1.0942)
(0.147202 0.170686 1.08916)
(0.116609 0.171788 1.08663)
(0.0834479 0.17507 1.08428)
(0.0500589 0.177462 1.08269)
(0.0166931 0.178691 1.08189)
(-0.0166932 0.178691 1.08189)
(-0.050059 0.177462 1.08269)
(-0.083448 0.17507 1.08428)
(-0.116609 0.171788 1.08663)
(-0.147202 0.170686 1.08916)
(0.0111954 0.0143008 0.266496)
(0.00940577 0.0175916 0.278757)
(0.00710218 0.020235 0.288797)
(0.00449591 0.0220473 0.295786)
(0.00153828 0.0229915 0.299363)
(-0.00153829 0.0229915 0.299363)
(-0.00449592 0.0220473 0.295786)
(-0.00710219 0.020235 0.288797)
(-0.00940578 0.0175915 0.278757)
(-0.0111954 0.0143008 0.266496)
(0.0544216 0.0658473 0.629456)
(0.0467317 0.0792231 0.651399)
(0.0357652 0.0906847 0.668997)
(0.022611 0.098806 0.681099)
(0.0077377 0.103069 0.687242)
(-0.00773773 0.103069 0.687242)
(-0.0226111 0.098806 0.681099)
(-0.0357653 0.0906846 0.668997)
(-0.0467318 0.0792231 0.651399)
(-0.0544216 0.0658472 0.629456)
(0.0977986 0.116813 0.876403)
(0.0834406 0.138155 0.900224)
(0.0635237 0.15647 0.918908)
(0.0399198 0.169397 0.931603)
(0.0136204 0.176148 0.937996)
(-0.0136205 0.176148 0.937996)
(-0.0399198 0.169397 0.931603)
(-0.0635238 0.15647 0.918908)
(-0.0834406 0.138155 0.900224)
(-0.0977987 0.116813 0.876403)
(0.133894 0.15875 1.04416)
(0.113268 0.184889 1.06616)
(0.0856779 0.207215 1.083)
(0.053537 0.222859 1.0943)
(0.0182148 0.230984 1.09994)
(-0.0182149 0.230984 1.09994)
(-0.0535371 0.222859 1.0943)
(-0.0856779 0.207215 1.083)
(-0.113268 0.184889 1.06616)
(-0.133894 0.15875 1.04416)
(0.159746 0.188324 1.15721)
(0.133982 0.216202 1.17583)
(0.100712 0.239855 1.1897)
(0.0626079 0.25631 1.19889)
(0.0212463 0.264809 1.20344)
(-0.0212464 0.264809 1.20344)
(-0.062608 0.25631 1.19889)
(-0.100712 0.239855 1.1897)
(-0.133982 0.216202 1.17583)
(-0.159746 0.188324 1.15721)
(0.175394 0.205704 1.23227)
(0.145865 0.232836 1.24709)
(0.108985 0.255655 1.25781)
(0.0674274 0.271423 1.26481)
(0.0228275 0.279525 1.26825)
(-0.0228276 0.279525 1.26825)
(-0.0674276 0.271423 1.26481)
(-0.108985 0.255655 1.25781)
(-0.145865 0.232836 1.24709)
(-0.175394 0.205704 1.23227)
(0.181899 0.212233 1.28116)
(0.149984 0.236717 1.2924)
(0.111407 0.257068 1.30025)
(0.0686155 0.271047 1.30529)
(0.0231776 0.278195 1.30774)
(-0.0231778 0.278195 1.30774)
(-0.0686156 0.271047 1.30529)
(-0.111407 0.257068 1.30025)
(-0.149984 0.236717 1.2924)
(-0.181899 0.212233 1.28116)
(0.180598 0.20954 1.31222)
(0.147624 0.229995 1.32037)
(0.109033 0.246722 1.32585)
(0.0668676 0.258158 1.32929)
(0.0225393 0.263987 1.33095)
(-0.0225395 0.263987 1.33095)
(-0.0668677 0.258157 1.32929)
(-0.109033 0.246722 1.32585)
(-0.147624 0.229995 1.32037)
(-0.180599 0.20954 1.31222)
(0.17295 0.199297 1.33129)
(0.140202 0.21479 1.33696)
(0.102966 0.2271 1.3406)
(0.0628769 0.235535 1.34283)
(0.0211492 0.23983 1.34387)
(-0.0211494 0.23983 1.34387)
(-0.0628771 0.235535 1.34283)
(-0.102966 0.2271 1.3406)
(-0.140202 0.21479 1.33696)
(-0.17295 0.199297 1.33129)
(0.16052 0.184311 1.34249)
(0.129262 0.192249 1.34632)
(0.094154 0.199794 1.3486)
(0.0572068 0.204998 1.34992)
(0.0191948 0.207646 1.35052)
(-0.019195 0.207646 1.35052)
(-0.057207 0.204998 1.34992)
(-0.0941542 0.199794 1.3486)
(-0.129263 0.192249 1.34632)
(-0.16052 0.184311 1.34249)
(0.00112222 0.00125328 0.1576)
(0.00113334 0.00160044 0.165897)
(0.000883467 0.00200866 0.172826)
(0.000591383 0.00231104 0.177731)
(0.000206073 0.00247859 0.18027)
(-0.000206086 0.00247859 0.18027)
(-0.000591395 0.00231103 0.177731)
(-0.000883477 0.00200866 0.172826)
(-0.00113335 0.00160043 0.165897)
(-0.00112222 0.00125327 0.1576)
(0.0180227 0.0209132 0.441546)
(0.0162079 0.0255141 0.461745)
(0.012685 0.0298437 0.478334)
(0.00814709 0.0330415 0.489977)
(0.00280733 0.0347593 0.49597)
(-0.00280737 0.0347593 0.49597)
(-0.00814713 0.0330415 0.489977)
(-0.0126851 0.0298436 0.478334)
(-0.0162079 0.0255141 0.461745)
(-0.0180227 0.0209132 0.441546)
(0.0410844 0.0478215 0.685089)
(0.0362861 0.0574541 0.712663)
(0.0281906 0.0662403 0.734947)
(0.0179578 0.072665 0.750458)
(0.00616575 0.0760864 0.758401)
(-0.00616582 0.0760864 0.758401)
(-0.0179579 0.072665 0.750458)
(-0.0281906 0.0662403 0.734947)
(-0.0362862 0.0574541 0.712663)
(-0.0410844 0.0478215 0.685089)
(0.0659686 0.0768474 0.887693)
(0.0575011 0.0910329 0.918872)
(0.044343 0.103725 0.943651)
(0.0280665 0.112907 0.960752)
(0.00960738 0.117763 0.969466)
(-0.00960748 0.117763 0.969466)
(-0.0280666 0.112907 0.960752)
(-0.0443431 0.103725 0.943651)
(-0.0575012 0.0910328 0.918872)
(-0.0659686 0.0768474 0.887693)
(0.0882022 0.10263 1.05279)
(0.0760092 0.119901 1.08479)
(0.0582005 0.135126 1.10979)
(0.0366308 0.146035 1.1269)
(0.0125049 0.151765 1.13557)
(-0.0125051 0.151765 1.13557)
(-0.0366309 0.146035 1.1269)
(-0.0582007 0.135126 1.10979)
(-0.0760093 0.119901 1.08479)
(-0.0882023 0.10263 1.05279)
(0.105541 0.122489 1.18527)
(0.0899986 0.141093 1.21621)
(0.0684413 0.157269 1.23997)
(0.0428522 0.168758 1.2561)
(0.0145917 0.174757 1.26424)
(-0.0145919 0.174757 1.26424)
(-0.0428524 0.168758 1.2561)
(-0.0684415 0.157269 1.23997)
(-0.0899988 0.141093 1.21621)
(-0.105542 0.122489 1.18527)
(0.117135 0.135455 1.29028)
(0.0988715 0.153705 1.31901)
(0.074685 0.169338 1.34071)
(0.0465288 0.180352 1.35532)
(0.015805 0.186072 1.36266)
(-0.0158052 0.186072 1.36266)
(-0.046529 0.180352 1.35532)
(-0.0746851 0.169338 1.34071)
(-0.0988717 0.153705 1.31901)
(-0.117135 0.135455 1.29028)
(0.122857 0.141415 1.37257)
(0.102659 0.157834 1.3985)
(0.0770321 0.17165 1.41779)
(0.047758 0.181312 1.43069)
(0.0161835 0.186305 1.43713)
(-0.0161837 0.186305 1.43713)
(-0.0477582 0.181312 1.43069)
(-0.0770323 0.17165 1.41779)
(-0.102659 0.157834 1.3985)
(-0.122857 0.141414 1.37257)
(0.123105 0.140805 1.43626)
(0.101853 0.154213 1.45927)
(0.0758974 0.165167 1.47614)
(0.0468125 0.172794 1.4873)
(0.0158225 0.17672 1.49284)
(-0.0158228 0.17672 1.49284)
(-0.0468128 0.172794 1.4873)
(-0.0758976 0.165167 1.47614)
(-0.101854 0.154213 1.45927)
(-0.123105 0.140805 1.43626)
(0.118698 0.135441 1.48469)
(0.0972481 0.143502 1.50528)
(0.071752 0.150792 1.51981)
(0.0439811 0.155842 1.52929)
(0.0148203 0.158426 1.53395)
(-0.0148205 0.158426 1.53395)
(-0.0439814 0.155842 1.52929)
(-0.0717522 0.150792 1.51981)
(-0.0972484 0.143502 1.50528)
(-0.118698 0.135441 1.48469)
(0.000713528 0.000937058 0.13785)
(0.00055776 0.00117494 0.144654)
(0.000382007 0.00134365 0.150195)
(0.000236925 0.00144351 0.154085)
(7.93411e-05 0.00149351 0.156091)
(-7.93527e-05 0.00149351 0.156091)
(-0.000236936 0.00144351 0.154085)
(-0.000382017 0.00134364 0.150195)
(-0.00055777 0.00117493 0.144654)
(-0.000713535 0.000937052 0.13785)
(0.00704498 0.00842354 0.395294)
(0.00611787 0.0103828 0.413355)
(0.00470473 0.0120782 0.427976)
(0.00300169 0.0132954 0.43821)
(0.0010309 0.0139431 0.443477)
(-0.00103094 0.0139431 0.443477)
(-0.00300172 0.0132954 0.43821)
(-0.00470476 0.0120782 0.427976)
(-0.0061179 0.0103828 0.413355)
(-0.00704501 0.00842352 0.395294)
(0.0172794 0.0204021 0.62838)
(0.0150744 0.0248411 0.655045)
(0.0116669 0.0287371 0.676466)
(0.00743298 0.0315657 0.691396)
(0.00255266 0.0330706 0.699059)
(-0.00255273 0.0330706 0.699059)
(-0.00743304 0.0315657 0.691396)
(-0.0116669 0.028737 0.676466)
(-0.0150745 0.0248411 0.655045)
(-0.0172795 0.0204021 0.62838)
(0.0296493 0.0348093 0.835194)
(0.0257816 0.0418766 0.867782)
(0.0199279 0.0480786 0.893715)
(0.0126558 0.0525771 0.911702)
(0.00434021 0.0549629 0.920905)
(-0.00434031 0.0549629 0.920905)
(-0.0126559 0.0525771 0.911702)
(-0.019928 0.0480786 0.893715)
(-0.0257817 0.0418766 0.867782)
(-0.0296494 0.0348093 0.835194)
(0.0421027 0.0492096 1.01569)
(0.0363849 0.0584539 1.05178)
(0.028011 0.0665205 1.0802)
(0.0177189 0.0723423 1.09981)
(0.00606502 0.0754169 1.10981)
(-0.00606516 0.0754169 1.10981)
(-0.017719 0.0723423 1.09981)
(-0.0280111 0.0665205 1.0802)
(-0.036385 0.0584539 1.05178)
(-0.0421028 0.0492095 1.01569)
(0.0531474 0.0618437 1.17103)
(0.0455815 0.0724663 1.2086)
(0.0349062 0.0816492 1.23786)
(0.0219842 0.088233 1.25793)
(0.00750885 0.0916931 1.26813)
(-0.00750902 0.0916931 1.26813)
(-0.0219843 0.088233 1.25793)
(-0.0349063 0.0816492 1.23786)
(-0.0455817 0.0724663 1.2086)
(-0.0531475 0.0618437 1.17103)
(0.0617965 0.0715703 1.303)
(0.0525478 0.0826167 1.34045)
(0.0400003 0.0920449 1.36929)
(0.0250758 0.0987543 1.38896)
(0.0085452 0.102263 1.39893)
(-0.0085454 0.102263 1.39893)
(-0.025076 0.0987543 1.38896)
(-0.0400005 0.0920449 1.36929)
(-0.052548 0.0826166 1.34045)
(-0.0617967 0.0715703 1.303)
(0.0674575 0.0777059 1.41366)
(0.0568354 0.0882008 1.4498)
(0.0429863 0.0970118 1.47734)
(0.0268173 0.103231 1.49603)
(0.00911647 0.106466 1.50545)
(-0.0091167 0.106466 1.50545)
(-0.0268175 0.103231 1.49603)
(-0.0429865 0.0970118 1.47734)
(-0.0568356 0.0882008 1.4498)
(-0.0674576 0.0777059 1.41366)
(0.0699337 0.0799861 1.50496)
(0.05836 0.089049 1.53913)
(0.0438257 0.0964443 1.56485)
(0.0271934 0.101627 1.58216)
(0.00921913 0.104308 1.59084)
(-0.00921938 0.104308 1.59084)
(-0.0271936 0.101627 1.58216)
(-0.0438259 0.0964443 1.56485)
(-0.0583602 0.089049 1.53913)
(-0.0699339 0.0799861 1.50496)
(0.0694054 0.0792 1.57859)
(0.0573113 0.0852239 1.61105)
(0.0426 0.0904595 1.63458)
(0.026257 0.0940937 1.65019)
(0.00887215 0.0959591 1.65797)
(-0.00887242 0.0959591 1.65797)
(-0.0262572 0.0940937 1.65019)
(-0.0426002 0.0904595 1.63458)
(-0.0573115 0.085224 1.61105)
(-0.0694056 0.0792 1.57859)
(0.00013057 0.000142805 0.126916)
(0.000120957 0.000187171 0.133255)
(8.9379e-05 0.000232626 0.138408)
(6.11462e-05 0.000264487 0.142032)
(2.11191e-05 0.000282551 0.143902)
(-2.11291e-05 0.000282551 0.143902)
(-6.11558e-05 0.000264485 0.142032)
(-8.93878e-05 0.000232622 0.138408)
(-0.000120965 0.000187166 0.133255)
(-0.000130576 0.0001428 0.126916)
(0.00251409 0.00290801 0.368076)
(0.00224877 0.00360509 0.385319)
(0.00176143 0.00424711 0.399289)
(0.00113845 0.00472481 0.409091)
(0.000393106 0.00498412 0.414143)
(-0.000393141 0.00498412 0.414143)
(-0.00113849 0.0047248 0.409091)
(-0.00176146 0.0042471 0.399289)
(-0.00224879 0.00360508 0.385319)
(-0.00251411 0.00290799 0.368076)
(0.00684869 0.00794499 0.591682)
(0.0060849 0.00973992 0.617857)
(0.0047696 0.01137 0.63895)
(0.00306518 0.0125827 0.65371)
(0.00105681 0.0132364 0.661304)
(-0.00105688 0.0132364 0.661304)
(-0.00306524 0.0125827 0.65371)
(-0.00476966 0.0113699 0.63895)
(-0.00608495 0.0097399 0.617857)
(-0.00684874 0.00794496 0.591681)
(0.0125703 0.0145849 0.79623)
(0.0110955 0.0176854 0.82928)
(0.00867193 0.0204749 0.855729)
(0.00554933 0.0225398 0.874173)
(0.00190998 0.0236472 0.883642)
(-0.00191008 0.0236472 0.883642)
(-0.00554942 0.0225398 0.874173)
(-0.00867201 0.0204749 0.855728)
(-0.0110955 0.0176853 0.829279)
(-0.0125704 0.0145849 0.79623)
(0.018803 0.0217812 0.980985)
(0.0164771 0.0261013 1.0189)
(0.0128206 0.0299523 1.04899)
(0.00816965 0.032784 1.0699)
(0.0028064 0.0342952 1.08061)
(-0.00280652 0.0342952 1.08061)
(-0.00816977 0.032784 1.0699)
(-0.0128207 0.0299523 1.04899)
(-0.0164772 0.0261013 1.0189)
(-0.0188031 0.0217812 0.980985)
(0.0247762 0.0286195 1.14582)
(0.0215393 0.0338514 1.18673)
(0.0166689 0.0384654 1.21892)
(0.010575 0.0418329 1.24118)
(0.00362492 0.0436208 1.25256)
(-0.00362507 0.0436208 1.25256)
(-0.0105751 0.0418329 1.24118)
(-0.0166691 0.0384654 1.21892)
(-0.0215395 0.0338514 1.18673)
(-0.0247763 0.0286194 1.14582)
(0.0298734 0.0343775 1.29105)
(0.0257457 0.0400699 1.33329)
(0.0198027 0.0450248 1.36622)
(0.0125041 0.0486118 1.3889)
(0.00427627 0.050506 1.40046)
(-0.00427645 0.050506 1.40046)
(-0.0125043 0.0486118 1.3889)
(-0.0198029 0.0450248 1.36622)
(-0.0257459 0.0400699 1.33328)
(-0.0298736 0.0343775 1.29105)
(0.0336401 0.0385227 1.41721)
(0.0287219 0.0441544 1.45938)
(0.0219445 0.0489776 1.49198)
(0.0137867 0.0524372 1.51431)
(0.00470296 0.0542535 1.52565)
(-0.00470317 0.0542535 1.52565)
(-0.0137869 0.0524372 1.51431)
(-0.0219447 0.0489776 1.49198)
(-0.028722 0.0441544 1.45938)
(-0.0336402 0.0385227 1.4172)
(0.0358307 0.0407482 1.52485)
(0.0302865 0.0458066 1.56604)
(0.0229621 0.050016 1.5975)
(0.0143416 0.0530054 1.61888)
(0.00487774 0.0545637 1.62967)
(-0.00487797 0.0545637 1.62967)
(-0.0143418 0.0530054 1.61888)
(-0.0229623 0.050016 1.5975)
(-0.0302867 0.0458066 1.56604)
(-0.0358309 0.0407482 1.52485)
(0.0364163 0.0413614 1.61439)
(0.0304052 0.0449369 1.65472)
(0.0227952 0.04803 1.68437)
(0.0141322 0.0501951 1.70424)
(0.00478875 0.0513126 1.71419)
(-0.00478899 0.0513126 1.71419)
(-0.0141325 0.0501952 1.70424)
(-0.0227954 0.04803 1.68437)
(-0.0304054 0.0449369 1.65472)
(-0.0364165 0.0413614 1.61439)
(7.97075e-05 0.000107547 0.123948)
(5.58368e-05 0.000136426 0.130088)
(3.42531e-05 0.000153162 0.135049)
(2.09627e-05 0.000161441 0.138531)
(6.81219e-06 0.000165407 0.140326)
(-6.82024e-06 0.000165407 0.140326)
(-2.09707e-05 0.00016144 0.138531)
(-3.42601e-05 0.000153159 0.135049)
(-5.58434e-05 0.000136422 0.130088)
(-7.9713e-05 0.000107543 0.123948)
(0.0010409 0.00124296 0.359576)
(0.00089421 0.00154166 0.376374)
(0.000683924 0.0017931 0.389924)
(0.000436795 0.0019736 0.399424)
(0.000149935 0.00207014 0.404316)
(-0.000149964 0.00207014 0.404316)
(-0.000436823 0.0019736 0.399423)
(-0.000683949 0.00179309 0.389924)
(-0.000894233 0.00154165 0.376374)
(-0.00104092 0.00124295 0.359576)
(0.00286881 0.00337663 0.579262)
(0.00250562 0.00415339 0.605007)
(0.00194553 0.0048312 0.625701)
(0.00124482 0.00532876 0.64018)
(0.00042833 0.00559565 0.647629)
(-0.000428383 0.00559565 0.647629)
(-0.00124488 0.00532875 0.64018)
(-0.00194558 0.00483119 0.625701)
(-0.00250566 0.00415337 0.605007)
(-0.00286885 0.00337662 0.579262)
(0.00537777 0.00629062 0.782282)
(0.00471007 0.00766913 0.815219)
(0.00366846 0.00888415 0.841559)
(0.00234508 0.00977961 0.859944)
(0.000806857 0.0102594 0.869388)
(-0.000806935 0.0102594 0.869388)
(-0.00234516 0.00977961 0.859944)
(-0.00366853 0.00888414 0.841559)
(-0.00471014 0.00766911 0.815218)
(-0.00537782 0.00629059 0.782282)
(0.0082422 0.00959679 0.96814)
(0.0072026 0.0115794 1.00652)
(0.00560276 0.0133273 1.03702)
(0.00357317 0.0146129 1.05824)
(0.00122812 0.0152997 1.06913)
(-0.00122822 0.0152997 1.06913)
(-0.00357327 0.0146129 1.05824)
(-0.00560286 0.0133273 1.03702)
(-0.00720269 0.0115794 1.00652)
(-0.00824227 0.00959677 0.96814)
(0.0111303 0.0129023 1.13656)
(0.00967833 0.0153817 1.17868)
(0.00750227 0.0175556 1.21192)
(0.00476877 0.0191465 1.23497)
(0.00163644 0.0199933 1.24677)
(-0.00163657 0.0199933 1.24677)
(-0.0047689 0.0191465 1.23497)
(-0.00750239 0.0175556 1.21191)
(-0.00967844 0.0153816 1.17868)
(-0.0111304 0.0129023 1.13656)
(0.0137357 0.0158479 1.28746)
(0.0118628 0.0186301 1.33171)
(0.00915023 0.0210459 1.36637)
(0.00579285 0.0228018 1.39033)
(0.00198387 0.023732 1.40256)
(-0.00198403 0.023732 1.40256)
(-0.005793 0.0228018 1.39033)
(-0.00915038 0.0210459 1.36637)
(-0.011863 0.0186301 1.33171)
(-0.0137358 0.0158479 1.28746)
(0.0157995 0.0181286 1.4208)
(0.0135346 0.0209643 1.46577)
(0.0103771 0.0233926 1.50072)
(0.00653878 0.0251423 1.52477)
(0.00223399 0.0260639 1.53701)
(-0.00223417 0.0260639 1.53701)
(-0.00653895 0.0251423 1.52477)
(-0.0103773 0.0233926 1.50072)
(-0.0135348 0.0209643 1.46577)
(-0.0157996 0.0181286 1.4208)
(0.0171508 0.019531 1.5365)
(0.0145556 0.0221557 1.58116)
(0.0110775 0.0243439 1.61551)
(0.00693999 0.025904 1.63895)
(0.00236407 0.0267195 1.65082)
(-0.00236427 0.0267195 1.65082)
(-0.00694018 0.025904 1.63895)
(-0.0110777 0.0243439 1.61551)
(-0.0145558 0.0221557 1.58116)
(-0.017151 0.019531 1.5365)
(0.017725 0.0201548 1.63425)
(0.0148581 0.0220927 1.6787)
(0.0111827 0.0237545 1.71161)
(0.00695359 0.024921 1.73375)
(0.00235977 0.0255244 1.74488)
(-0.00235998 0.0255244 1.74488)
(-0.0069538 0.024921 1.73375)
(-0.0111829 0.0237545 1.71161)
(-0.0148582 0.0220927 1.6787)
(-0.0177251 0.0201548 1.63425)
(1.22925e-05 1.5118e-05 0.122448)
(8.3786e-06 2.06559e-05 0.128521)
(4.71032e-06 2.42949e-05 0.133423)
(3.4704e-06 2.63834e-05 0.136866)
(1.16504e-06 2.75968e-05 0.138641)
(-1.1712e-06 2.75964e-05 0.138641)
(-3.47637e-06 2.63821e-05 0.136866)
(-4.71593e-06 2.42928e-05 0.133423)
(-8.3839e-06 2.06529e-05 0.128521)
(-1.22968e-05 1.51144e-05 0.122448)
(0.000362101 0.000423097 0.355338)
(0.000316154 0.000528122 0.371965)
(0.000244901 0.000619751 0.385371)
(0.000158104 0.000687467 0.394772)
(5.45274e-05 0.000724266 0.399615)
(-5.45499e-05 0.000724265 0.399615)
(-0.000158125 0.000687463 0.394772)
(-0.000244921 0.000619745 0.385371)
(-0.000316173 0.000528113 0.371965)
(-0.000362116 0.000423087 0.355338)
(0.00108132 0.0012581 0.572929)
(0.000953819 0.00155611 0.598486)
(0.00074668 0.00182122 0.619028)
(0.000480717 0.00201924 0.633408)
(0.000165884 0.00212644 0.640808)
(-0.000165926 0.00212644 0.640808)
(-0.000480757 0.00201924 0.633408)
(-0.000746718 0.00182121 0.619028)
(-0.000953854 0.00155609 0.598486)
(-0.00108135 0.00125808 0.572928)
(0.00212024 0.00246038 0.774821)
(0.00187226 0.00301656 0.807677)
(0.0014683 0.00351364 0.833966)
(0.000943352 0.00388503 0.852332)
(0.000325357 0.00408551 0.861771)
(-0.00032542 0.00408551 0.861771)
(-0.000943413 0.00388502 0.852331)
(-0.00146836 0.00351363 0.833966)
(-0.00187232 0.00301655 0.807677)
(-0.00212028 0.00246036 0.774821)
(0.00335775 0.00388472 0.960693)
(0.00295727 0.00471542 0.999221)
(0.00231566 0.00545667 1.02988)
(0.00148386 0.00600859 1.05124)
(0.000511201 0.00630553 1.06221)
(-0.000511285 0.00630553 1.06221)
(-0.00148394 0.00600858 1.05124)
(-0.00231573 0.00545666 1.02988)
(-0.00295734 0.0047154 0.999221)
(-0.00335782 0.0038847 0.960693)
(0.00465643 0.0053679 1.1303)
(0.00408112 0.00643981 1.17289)
(0.00318461 0.00739073 1.20657)
(0.00203392 0.00809487 1.22998)
(0.00069959 0.00847215 1.24197)
(-0.000699697 0.00847215 1.24197)
(-0.00203402 0.00809486 1.22998)
(-0.0031847 0.00739072 1.20657)
(-0.00408121 0.0064398 1.17289)
(-0.00465651 0.00536788 1.13029)
(0.00587763 0.00674693 1.28342)
(0.00511764 0.00798316 1.32855)
(0.00397403 0.00906938 1.36399)
(0.00252793 0.00986795 1.38854)
(0.000867779 0.0102937 1.40109)
(-0.000867906 0.0102937 1.40109)
(-0.00252806 0.00986794 1.38854)
(-0.00397415 0.00906938 1.36399)
(-0.00511775 0.00798315 1.32855)
(-0.00587773 0.00674692 1.28342)
(0.00689475 0.00787239 1.41986)
(0.00595568 0.00916405 1.4661)
(0.00459696 0.0102837 1.50216)
(0.00291028 0.0110991 1.52704)
(0.000996605 0.0115312 1.53972)
(-0.000996751 0.0115312 1.53972)
(-0.00291042 0.0110991 1.52704)
(-0.00459709 0.0102837 1.50216)
(-0.0059558 0.00916405 1.4661)
(-0.00689486 0.00787238 1.41986)
(0.007616 0.00863119 1.53923)
(0.0065168 0.00985594 1.58554)
(0.00499148 0.0108888 1.6213)
(0.00314105 0.0116318 1.64577)
(0.0010723 0.0120222 1.65817)
(-0.00107246 0.0120222 1.65817)
(-0.00314121 0.0116318 1.64577)
(-0.00499163 0.0108888 1.62129)
(-0.00651693 0.00985594 1.58554)
(-0.00761612 0.00863119 1.53923)
(0.00799466 0.00905603 1.64089)
(0.00674958 0.0099917 1.68737)
(0.00510965 0.0107926 1.72191)
(0.00318988 0.0113582 1.74522)
(0.00108459 0.0116519 1.75694)
(-0.00108476 0.0116519 1.75694)
(-0.00319005 0.0113582 1.74522)
(-0.00510981 0.0107926 1.72191)
(-0.00674973 0.00999171 1.68737)
(-0.00799479 0.00905604 1.64089)
(7.77591e-06 1.23605e-05 0.12205)
(3.23451e-06 1.61218e-05 0.128096)
(6.47931e-07 1.72406e-05 0.132972)
(1.62078e-07 1.72693e-05 0.136395)
(-2.62574e-08 1.71821e-05 0.138159)
(2.17473e-08 1.71817e-05 0.138159)
(-1.66458e-07 1.72683e-05 0.136395)
(-6.52052e-07 1.7239e-05 0.132972)
(-3.23852e-06 1.61195e-05 0.128096)
(-7.77915e-06 1.23579e-05 0.12205)
(0.000139327 0.000169283 0.35404)
(0.000115516 0.000211654 0.370589)
(8.65886e-05 0.000245024 0.383921)
(5.49415e-05 0.000268523 0.393268)
(1.87878e-05 0.000281023 0.398082)
(-1.88045e-05 0.000281022 0.398082)
(-5.49577e-05 0.00026852 0.393268)
(-8.66039e-05 0.00024502 0.383921)
(-0.00011553 0.000211648 0.370589)
(-0.000139339 0.000169275 0.35404)
(0.000418949 0.00049571 0.570844)
(0.000361822 0.00061501 0.596303)
(0.00027967 0.000716669 0.616753)
(0.000178877 0.000791338 0.631068)
(6.15357e-05 0.000831465 0.638434)
(-6.15671e-05 0.000831464 0.638434)
(-0.000178908 0.000791334 0.631068)
(-0.000279698 0.000716662 0.616753)
(-0.000361849 0.000615 0.596303)
(-0.000418972 0.000495699 0.570844)
(0.000833711 0.000976291 0.772251)
(0.000728701 0.0012021 0.80504)
(0.000568233 0.00139948 0.831266)
(0.000364121 0.00154596 0.84959)
(0.000125437 0.00162483 0.859009)
(-0.000125484 0.00162483 0.859009)
(-0.000364167 0.00154595 0.84959)
(-0.000568276 0.00139947 0.831266)
(-0.000728741 0.00120209 0.805039)
(-0.000833745 0.000976278 0.772251)
(0.00134326 0.00156277 0.958062)
(0.00117727 0.00190672 0.996611)
(0.000919815 0.00220985 1.02728)
(0.000589046 0.00243508 1.04867)
(0.000202889 0.00255622 1.05965)
(-0.000202953 0.00255622 1.05965)
(-0.000589109 0.00243508 1.04867)
(-0.000919875 0.00220984 1.02728)
(-0.00117733 0.00190671 0.99661)
(-0.00134331 0.00156276 0.958061)
(0.00189536 0.00219326 1.12808)
(0.00165817 0.00264642 1.17084)
(0.00129364 0.00304561 1.20466)
(0.000826654 0.0033413 1.22818)
(0.000284435 0.00349987 1.24024)
(-0.000284517 0.00349987 1.24024)
(-0.000826733 0.00334129 1.22818)
(-0.00129371 0.0030456 1.20466)
(-0.00165824 0.00264641 1.17084)
(-0.00189543 0.00219325 1.12808)
(0.002432 0.00279952 1.2821)
(0.00211771 0.00333298 1.32757)
(0.00164613 0.00379995 1.3633)
(0.00104842 0.00414381 1.38808)
(0.000360141 0.00432743 1.40075)
(-0.000360239 0.00432742 1.40075)
(-0.00104852 0.00414381 1.38808)
(-0.00164622 0.00379995 1.3633)
(-0.00211779 0.00333298 1.32757)
(-0.00243208 0.00279951 1.2821)
(0.00289597 0.00331384 1.41984)
(0.0025048 0.00388247 1.46662)
(0.00193674 0.00437461 1.50314)
(0.00122815 0.0047338 1.52836)
(0.000420929 0.00492446 1.54122)
(-0.000421042 0.00492446 1.54122)
(-0.00122826 0.0047338 1.52836)
(-0.00193684 0.00437461 1.50314)
(-0.0025049 0.00388247 1.46662)
(-0.00289606 0.00331383 1.41984)
(0.00324218 0.00368037 1.54082)
(0.00277994 0.00423043 1.58786)
(0.00213385 0.00469441 1.62423)
(0.00134526 0.00502886 1.64915)
(0.000459671 0.00520486 1.6618)
(-0.000459796 0.00520486 1.6618)
(-0.00134538 0.00502886 1.64915)
(-0.00213397 0.00469441 1.62423)
(-0.00278005 0.00423043 1.58785)
(-0.00324227 0.00368037 1.54082)
(0.00344384 0.00390654 1.64425)
(0.00291396 0.00433804 1.69165)
(0.00221119 0.00470579 1.72694)
(0.00138299 0.00496596 1.75078)
(0.000470663 0.00510122 1.76278)
(-0.000470796 0.00510122 1.76278)
(-0.00138312 0.00496597 1.75078)
(-0.00221132 0.0047058 1.72694)
(-0.00291407 0.00433805 1.69165)
(-0.00344394 0.00390654 1.64425)
(-4.15604e-07 2.1514e-07 0.121872)
(-1.45062e-06 7.09652e-07 0.12791)
(-1.64569e-06 5.40595e-07 0.132777)
(-1.06945e-06 2.30771e-07 0.136194)
(-3.86876e-07 5.51561e-08 0.137956)
(3.83716e-07 5.49232e-08 0.137956)
(1.06638e-06 2.30075e-07 0.136194)
(1.64278e-06 5.39474e-07 0.132777)
(1.44776e-06 7.08057e-07 0.12791)
(4.13277e-07 2.13212e-07 0.121872)
(3.9587e-05 4.76175e-05 0.35347)
(3.25649e-05 6.04877e-05 0.36999)
(2.43981e-05 7.0667e-05 0.383297)
(1.55878e-05 7.79864e-05 0.392626)
(5.34075e-06 8.19334e-05 0.397431)
(-5.35269e-06 8.19327e-05 0.397431)
(-1.55994e-05 7.79843e-05 0.392626)
(-2.4409e-05 7.06638e-05 0.383296)
(-3.25753e-05 6.04832e-05 0.36999)
(-3.95955e-05 4.76119e-05 0.35347)
(0.000135522 0.000159076 0.569916)
(0.00011739 0.000199457 0.595335)
(9.11763e-05 0.000234195 0.615749)
(5.86055e-05 0.000260107 0.63004)
(2.02036e-05 0.000274148 0.637394)
(-2.02262e-05 0.000274147 0.637394)
(-5.86274e-05 0.000260104 0.63004)
(-9.1197e-05 0.000234191 0.615749)
(-0.000117409 0.00019945 0.595334)
(-0.000135538 0.000159068 0.569915)
(0.000286757 0.00033359 0.771069)
(0.000251914 0.000414414 0.803824)
(0.000197526 0.000485711 0.830023)
(0.000127142 0.000539303 0.84833)
(4.38902e-05 0.000568358 0.85774)
(-4.39247e-05 0.000568357 0.85774)
(-0.000127176 0.000539299 0.84833)
(-0.000197558 0.000485706 0.830023)
(-0.000251943 0.000414405 0.803824)
(-0.000286782 0.00033358 0.771069)
(0.000480739 0.000556033 0.956785)
(0.000423864 0.000683933 0.995332)
(0.000333101 0.000797675 1.02601)
(0.000214257 0.000883166 1.04739)
(7.39515e-05 0.000929438 1.05838)
(-7.39987e-05 0.000929436 1.05838)
(-0.000214302 0.000883162 1.04739)
(-0.000333144 0.000797669 1.02601)
(-0.000423904 0.000683924 0.995331)
(-0.000480774 0.000556022 0.956785)
(0.000698574 0.000803974 1.1269)
(0.00061517 0.00097754 1.16971)
(0.000482824 0.00113183 1.20359)
(0.000309896 0.00124735 1.22715)
(0.000106854 0.00130968 1.23923)
(-0.000106914 0.00130968 1.23923)
(-0.000309954 0.00124735 1.22715)
(-0.00048288 0.00113182 1.20359)
(-0.000615221 0.000977532 1.16971)
(-0.000698619 0.000803964 1.1269)
(0.000917492 0.00105061 1.28122)
(0.000804497 0.00125999 1.32681)
(0.00062918 0.00144497 1.36266)
(0.000402492 0.00158258 1.38752)
(0.00013855 0.00165647 1.40025)
(-0.000138622 0.00165647 1.40025)
(-0.000402562 0.00158257 1.38752)
(-0.000629247 0.00144497 1.36266)
(-0.000804559 0.00125999 1.32681)
(-0.000917547 0.00105061 1.28122)
(0.00111374 0.00126785 1.41945)
(0.000970256 0.00149584 1.46643)
(0.000754769 0.00169499 1.50313)
(0.000480678 0.0018417 1.5285)
(0.000165081 0.00191997 1.54144)
(-0.000165165 0.00191997 1.54144)
(-0.000480759 0.0018417 1.5285)
(-0.000754847 0.00169499 1.50313)
(-0.000970328 0.00149584 1.46643)
(-0.0011138 0.00126785 1.41945)
(0.00126756 0.00143152 1.54105)
(0.00109458 0.00165654 1.58838)
(0.00084502 0.0018479 1.62501)
(0.000534862 0.00198686 1.65013)
(0.000183105 0.0020603 1.66288)
(-0.000183198 0.0020603 1.66288)
(-0.000534953 0.00198686 1.65013)
(-0.000845106 0.0018479 1.62501)
(-0.00109466 0.00165654 1.58838)
(-0.00126764 0.00143152 1.54105)
(0.00136579 0.00154329 1.64521)
(0.00116269 0.00172457 1.69299)
(0.000886861 0.00187862 1.7286)
(0.000556641 0.00198811 1.75267)
(0.000189747 0.00204521 1.76479)
(-0.000189847 0.00204521 1.76479)
(-0.000556739 0.00198812 1.75267)
(-0.000886954 0.00187862 1.7286)
(-0.00116278 0.00172458 1.69299)
(-0.00136587 0.00154329 1.6452)
(2.83337e-08 7.91139e-07 0.121844)
(-8.27728e-07 1.17729e-06 0.127878)
(-1.03571e-06 1.0104e-06 0.132742)
(-7.51685e-07 7.23066e-07 0.136157)
(-2.79389e-07 5.39681e-07 0.137917)
(2.77264e-07 5.39526e-07 0.137917)
(7.49611e-07 7.2259e-07 0.136157)
(1.03374e-06 1.00962e-06 0.132742)
(8.25825e-07 1.17619e-06 0.127878)
(-2.99291e-08 7.89841e-07 0.121844)
(1.13547e-05 1.48976e-05 0.353336)
(8.0556e-06 1.91752e-05 0.369844)
(5.38864e-06 2.19056e-05 0.383139)
(3.23557e-06 2.36396e-05 0.392459)
(1.07002e-06 2.452e-05 0.39726)
(-1.07818e-06 2.45195e-05 0.39726)
(-3.24351e-06 2.36382e-05 0.392459)
(-5.39614e-06 2.19033e-05 0.383139)
(-8.0626e-06 1.9172e-05 0.369844)
(-1.13606e-05 1.48938e-05 0.353335)
(4.18718e-05 5.06824e-05 0.569663)