/*--------------------------------*- C++ -*----------------------------------*\
| =========                 |                                                 |
| \\      /  F ield         | OpenFOAM: The Open Source CFD Toolbox           |
|  \\    /   O peration     | Version:  2106                                  |
|   \\  /    A nd           | Website:  www.openfoam.com                      |
|    \\/     M anipulation  |                                                 |
\*---------------------------------------------------------------------------*/
FoamFile
{
    version     2.0;
    format      ascii;
    arch        "LSB;label=32;scalar=64";
    class       surfaceScalarField;
    location    "0.95";
    object      phi;
}
// * * * * * * * * * * * * * * * * * * * * * * * * * * * * * * * * * * * * * //

dimensions      [0 3 -1 0 0 0 0];

oriented        oriented;

internalField   nonuniform List<scalar> 
29100
(
0.00118089
0.150393
0.0809171
-4.52449e-10
0.00145314
0.15527
0.0889228
0.00124701
0.158689
0.0956105
0.000710185
0.160967
0.100397
-9.80676e-12
0.16211
0.10289
-0.000710185
0.16211
0.10289
-0.00124701
0.160967
0.100397
-0.00145314
0.158689
0.0956105
-0.00118089
0.15527
0.0889228
0.150393
0.0809171
-4.95998e-10
0.00236437
0.208241
0.155448
-4.99191e-10
0.0032842
0.212825
0.168971
0.00292925
0.215897
0.180028
0.00169455
0.217814
0.187847
-6.67731e-10
0.218753
0.191888
-0.00169455
0.218753
0.191888
-0.00292925
0.217814
0.187847
-0.00328421
0.215897
0.180028
-0.00236437
0.212825
0.168971
0.208241
0.155448
-1.36253e-09
0.00301624
0.219384
0.184669
-6.73912e-10
0.00426625
0.22231
0.199691
0.00382963
0.224217
0.211783
0.00221809
0.225258
0.220259
-1.5645e-09
0.225741
0.224615
-0.00221809
0.225741
0.224615
-0.00382963
0.225258
0.220259
-0.00426625
0.224217
0.211783
-0.00301625
0.22231
0.199691
0.219384
0.184669
-2.33039e-09
0.00344506
0.206168
0.191768
-7.35164e-10
0.00480647
0.207428
0.206927
0.00430554
0.208195
0.218977
0.00248929
0.208435
0.227363
-2.55141e-09
0.208506
0.231655
-0.0024893
0.208506
0.231655
-0.00430554
0.208435
0.227363
-0.00480647
0.208195
0.218977
-0.00344506
0.207428
0.206927
0.206168
0.191768
-3.30849e-09
0.00367444
0.181259
0.1864
-6.9818e-10
0.00505727
0.181235
0.201196
0.00451795
0.181137
0.212837
0.00260869
0.180809
0.220892
-3.51054e-09
0.180593
0.225
-0.0026087
0.180593
0.225
-0.00451795
0.180809
0.220892
-0.00505727
0.181137
0.212837
-0.00367445
0.181235
0.201196
0.181259
0.1864
-4.34386e-09
0.00375948
0.151933
0.1739
-6.46589e-10
0.00512336
0.15106
0.188179
0.00456753
0.150397
0.199323
0.00263584
0.149735
0.206994
-4.34104e-09
0.149358
0.210896
-0.00263585
0.149358
0.210896
-0.00456754
0.149735
0.206994
-0.00512336
0.150397
0.199323
-0.00375948
0.15106
0.188179
0.151933
0.1739
-5.43836e-09
0.00376764
0.122272
0.157397
-5.37208e-10
0.00509853
0.120917
0.171159
0.00453855
0.119941
0.18183
0.00261896
0.119135
0.18914
-5.12718e-09
0.118699
0.19285
-0.00261897
0.118699
0.19285
-0.00453855
0.119135
0.18914
-0.00509854
0.119941
0.18183
-0.00376765
0.120917
0.171159
0.122272
0.157397
-6.67092e-09
0.00373349
0.0944874
0.138722
-4.12566e-10
0.00504498
0.0929099
0.152023
0.00449074
0.0918167
0.162279
0.00259257
0.0910124
0.169273
-6.00788e-09
0.0905963
0.172815
-0.00259258
0.0905963
0.172815
-0.00449075
0.0910124
0.169273
-0.00504499
0.0918167
0.162279
-0.0037335
0.0929099
0.152023
0.0944874
0.138722
-8.11504e-09
0.00370204
0.069696
0.11893
-2.9766e-10
0.00502713
0.0680602
0.131832
0.00447628
0.0670213
0.141733
0.00258342
0.0663338
0.148456
-6.99129e-09
0.0659935
0.151853
-0.00258344
0.0659935
0.151853
-0.00447629
0.0663338
0.148456
-0.00502714
0.0670213
0.141733
-0.00370205
0.0680602
0.131832
0.069696
0.11893
-9.85262e-09
0.00392244
0.0986203
-3.75864e-10
0.0481621
0.00521702
0.111185
0.0468679
0.00458895
0.120777
0.0460461
0.00262852
0.127262
0.0455491
-8.17071e-09
0.130531
0.0453054
-0.00262854
0.130531
0.0453054
-0.00458897
0.127262
0.0455491
-0.00521703
0.120777
0.0460461
-0.00392246
0.111185
0.0468679
0.0986203
-1.16849e-08
0.0481621
-0.000240339
0.0365287
0.0446287
-2.10503e-10
-0.000242382
0.0397032
0.0492217
-0.000170348
0.0423858
0.0531527
-8.48233e-05
0.0443041
0.0560077
-7.39707e-10
0.0452964
0.057509
8.48219e-05
0.0452965
0.057509
0.000170346
0.0443041
0.0560077
0.000242381
0.0423858
0.0531527
0.000240337
0.0397032
0.0492217
0.0365287
0.0446287
-1.04933e-09
6.49775e-05
0.0807007
0.111211
-2.30295e-10
0.000253377
0.0864919
0.121994
0.000302679
0.0913079
0.131056
0.000202725
0.0946825
0.137569
-2.97097e-09
0.0964159
0.140971
-0.00020273
0.0964159
0.140971
-0.000302685
0.0946825
0.137569
-0.000253382
0.0913079
0.131056
-6.49813e-05
0.0864919
0.121994
0.0807007
0.111211
-3.16951e-09
0.000614955
0.112213
0.152542
-2.30967e-10
0.00103338
0.118925
0.16684
0.00101105
0.124434
0.17868
0.000617898
0.128219
0.187116
-5.37137e-09
0.130149
0.1915
-0.000617908
0.130149
0.1915
-0.00101106
0.128219
0.187116
-0.00103339
0.124434
0.17868
-0.000614961
0.118925
0.16684
0.112213
0.152542
-5.4326e-09
0.00123443
0.128725
0.174021
-2.39089e-10
0.00187788
0.135121
0.190087
0.00176699
0.140305
0.203217
0.00105532
0.143792
0.212502
-7.89128e-09
0.145553
0.217306
-0.00105534
0.145553
0.217306
-0.001767
0.143792
0.212502
-0.0018779
0.140305
0.203217
-0.00123444
0.135121
0.190087
0.128725
0.174021
-7.72864e-09
0.0018403
0.131969
0.181316
-1.38621e-10
0.00268057
0.137361
0.198116
0.00247739
0.141661
0.211684
0.00146347
0.144486
0.221212
-1.04995e-08
0.145895
0.226122
-0.00146349
0.145895
0.226122
-0.00247741
0.144486
0.221212
-0.00268059
0.141661
0.211684
-0.00184031
0.137361
0.198116
0.131969
0.181316
-1.00671e-08
0.00238858
0.124973
0.178508
-4.71065e-11
0.00339484
0.129087
0.195446
0.00310509
0.132293
0.208981
0.00182291
0.134338
0.218424
-1.29989e-08
0.135343
0.223272
-0.00182293
0.135343
0.223272
-0.00310512
0.134338
0.218424
-0.00339486
0.132293
0.208981
-0.0023886
0.129087
0.195446
0.124973
0.178508
-1.23897e-08
0.00285614
0.110958
0.168556
-3.96606e-11
0.00400425
0.113789
0.185309
0.00364154
0.115915
0.198571
0.00213062
0.117223
0.207766
-1.5239e-08
0.117853
0.21247
-0.00213065
0.117853
0.21247
-0.00364157
0.117223
0.207766
-0.00400428
0.115915
0.198571
-0.00285616
0.113789
0.185309
0.110958
0.168556
-1.46461e-08
0.00323714
0.092838
0.153605
4.30032e-11
0.00451845
0.0945145
0.170016
0.0041004
0.0957125
0.182899
0.00239539
0.0964212
0.19178
-1.71903e-08
0.0967567
0.196308
-0.00239542
0.0967567
0.196308
-0.00410043
0.0964212
0.19178
-0.00451847
0.0957125
0.182899
-0.00323716
0.0945145
0.170016
0.092838
0.153605
-1.67596e-08
0.00356738
0.0730101
0.13519
1.54486e-10
0.00498658
0.0737243
0.151203
0.00451942
0.0742367
0.163676
0.00263599
0.0745361
0.172225
-1.8818e-08
0.0746779
0.176568
-0.00263603
0.0746779
0.176568
-0.00451945
0.0745361
0.172225
-0.00498661
0.0742367
0.163676
-0.0035674
0.0737243
0.151203
0.0730101
0.13519
-1.86973e-08
0.00399387
0.114403
6.42783e-11
0.0532337
0.00553284
0.130028
0.0533433
0.00497534
0.142091
0.0534804
0.00288581
0.150309
0.0535784
-2.00771e-08
0.15447
0.0536241
-0.00288585
0.15447
0.0536241
-0.00497537
0.150309
0.0535784
-0.00553287
0.142091
0.0534804
-0.00399389
0.130028
0.0533433
0.114403
-2.02464e-08
0.0532337
3.93047e-05
0.00999804
0.0345914
-1.10789e-10
3.52777e-05
0.0110321
0.0381936
2.97316e-05
0.0119097
0.0412486
1.648e-05
0.0125613
0.0434597
-9.93902e-10
0.0129045
0.0446209
-1.6482e-05
0.0129045
0.0446209
-2.97334e-05
0.0125613
0.0434597
-3.52793e-05
0.0119097
0.0412486
-3.93062e-05
0.0110321
0.0381936
0.00999804
0.0345914
-1.31054e-09
0.000281544
0.030318
0.0906094
-1.59529e-10
0.000382379
0.0330292
0.0998958
0.000341776
0.035298
0.107709
0.000199376
0.0369343
0.113338
-3.85493e-09
0.0377892
0.116286
-0.000199383
0.0377892
0.116286
-0.000341782
0.0369344
0.113338
-0.000382385
0.035298
0.107709
-0.000281549
0.0330292
0.0998958
0.030318
0.0906094
-4.21551e-09
0.00060136
0.0512402
0.131019
-1.9246e-10
0.000853345
0.0552457
0.144372
0.000773141
0.0585533
0.155505
0.000453179
0.060886
0.163484
-7.08172e-09
0.0620944
0.167648
-0.000453193
0.0620944
0.167648
-0.000773153
0.060886
0.163484
-0.000853356
0.0585533
0.155505
-0.000601369
0.0552457
0.144372
0.0512402
0.131019
-7.34059e-09
0.000969029
0.0670647
0.157227
-1.9258e-10
0.00139075
0.071648
0.173263
0.0012703
0.0753871
0.186504
0.000746047
0.0779728
0.195939
-1.04247e-08
0.0793002
0.200846
-0.000746068
0.0793002
0.200846
-0.00127032
0.0779728
0.195939
-0.00139077
0.0753871
0.186504
-0.000969042
0.0716481
0.173263
0.0670647
0.157227
-1.04954e-08
0.00135944
0.0757932
0.171228
-1.87774e-10
0.00194733
0.0802948
0.188882
0.00178311
0.0839187
0.203317
0.00104749
0.086377
0.213543
-1.38471e-08
0.0876263
0.218843
-0.00104752
0.0876263
0.218843
-0.00178314
0.086377
0.213543
-0.00194735
0.0839187
0.203317
-0.00135946
0.0802948
0.188882
0.0757932
0.171228
-1.36159e-08
0.00175219
0.0774404
0.175109
-1.33396e-10
0.00249296
0.0813923
0.193608
0.00228172
0.0845195
0.208592
0.00133965
0.0865982
0.219144
-1.72066e-08
0.0876432
0.224595
-0.00133969
0.0876432
0.224595
-0.00228175
0.0865982
0.219144
-0.00249299
0.0845195
0.208592
-0.00175221
0.0813923
0.193608
0.0774404
0.175109
-1.66094e-08
0.00212395
0.0730773
0.170795
-1.12171e-10
0.00300338
0.0762163
0.189605
0.00274616
0.078643
0.204704
0.00161141
0.0802226
0.215276
-2.02811e-08
0.0810077
0.220717
-0.00161145
0.0810077
0.220717
-0.00274619
0.0802226
0.215276
-0.00300341
0.078643
0.204704
-0.00212398
0.0762163
0.189605
0.0730773
0.170795
-1.94089e-08
0.0024586
0.0642555
0.159968
-2.23765e-10
0.00346851
0.0664838
0.178738
0.00316978
0.0681634
0.193677
0.00185909
0.0692372
0.204076
-2.29265e-08
0.069766
0.209409
-0.00185914
0.069766
0.209409
-0.00316982
0.0692372
0.204076
-0.00346854
0.0681634
0.193677
-0.00245863
0.0664838
0.178738
0.0642555
0.159968
-2.18902e-08
0.00276864
0.0526369
0.14404
-4.99127e-10
0.00390418
0.0539887
0.162563
0.00356224
0.0550016
0.17718
0.00208633
0.0556468
0.187291
-2.49934e-08
0.0559641
0.192456
-0.00208638
0.0559641
0.192456
-0.00356229
0.0556468
0.187291
-0.00390422
0.0550017
0.17718
-0.00276867
0.0539887
0.162563
0.0526369
0.14404
-2.39411e-08
0.00311208
0.124178
-7.92897e-10
0.0397492
0.00435401
0.14237
0.040404
0.00395017
0.156568
0.0409285
0.00230416
0.166321
0.0412808
-2.63759e-08
0.171284
0.0414549
-0.00230422
0.171284
0.0414549
-0.00395021
0.166321
0.0412808
-0.00435405
0.156568
0.0409285
-0.00311211
0.14237
0.040404
0.124178
-2.54632e-08
0.0397493
-3.1623e-05
0.00408501
0.030538
-7.98703e-11
-4.51581e-05
0.00449836
0.0337087
-3.63962e-05
0.0048491
0.0363907
-2.00604e-05
0.0051099
0.0383335
-9.89744e-10
0.00524652
0.0393543
2.00584e-05
0.00524652
0.0393543
3.63943e-05
0.0051099
0.0383335
4.51563e-05
0.0048491
0.0363907
3.16215e-05
0.00449836
0.0337087
0.00408501
0.030538
-1.39227e-09
1.02329e-05
0.0126863
0.0819979
-5.23811e-12
1.76391e-05
0.0139014
0.0904854
2.20505e-05
0.014931
0.0976223
1.57083e-05
0.0156816
0.102773
-3.8376e-09
0.0160751
0.105473
-1.57158e-05
0.0160751
0.105473
-2.20575e-05
0.0156816
0.102773
-1.76453e-05
0.014931
0.0976223
-1.02378e-05
0.0139014
0.0904854
0.0126863
0.0819979
-4.52515e-09
0.000124061
0.0225852
0.120996
-5.56157e-11
0.000188126
0.0246037
0.133605
0.000180654
0.0263027
0.14414
0.000110061
0.0275224
0.151714
-7.23156e-09
0.0281592
0.155674
-0.000110075
0.0281592
0.155674
-0.000180667
0.0275224
0.151714
-0.000188138
0.0263027
0.14414
-0.00012407
0.0246037
0.133605
0.0225852
0.120996
-7.98687e-09
0.000295231
0.031318
0.148199
-1.44212e-10
0.000440219
0.0338896
0.163832
0.000415003
0.0360333
0.176798
0.000248828
0.0375496
0.186078
-1.08463e-08
0.0383364
0.190918
-0.000248849
0.0383364
0.190918
-0.000415022
0.0375496
0.186078
-0.000440236
0.0360333
0.176798
-0.000295244
0.0338896
0.163832
0.031318
0.148199
-1.14555e-08
0.000508087
0.0373588
0.164679
-2.48675e-10
0.000746866
0.0401416
0.182391
0.000698627
0.0424319
0.196967
0.000416175
0.0440273
0.207348
-1.45135e-08
0.0448489
0.212747
-0.000416203
0.0448489
0.212747
-0.000698653
0.0440273
0.207348
-0.000746888
0.0424319
0.196967
-0.000508105
0.0401416
0.182391
0.0373588
0.164679
-1.48514e-08
0.000746555
0.0400527
0.171668
-4.08982e-10
0.00108396
0.0427247
0.190687
0.00100849
0.0448865
0.206213
0.000598448
0.0463681
0.217214
-1.80913e-08
0.0471245
0.222917
-0.000598483
0.0471245
0.222917
-0.00100852
0.0463681
0.217214
-0.00108398
0.0448865
0.206213
-0.000746578
0.0427247
0.190687
0.0400527
0.171668
-1.80427e-08
0.000993303
0.0394167
0.170438
-6.6267e-10
0.0014297
0.0417316
0.190162
0.00132523
0.0435641
0.206131
0.000784436
0.0447988
0.217386
-2.14076e-08
0.0454235
0.223203
-0.000784477
0.0454235
0.223203
-0.00132527
0.0447988
0.217386
-0.00142973
0.0435641
0.206131
-0.000993329
0.0417317
0.190162
0.0394167
0.170438
-2.094e-08
0.0012353
0.0359285
0.162221
-9.36013e-10
0.00177069
0.0377342
0.1822
0.00163706
0.0391303
0.198245
0.000967101
0.0400565
0.209488
-2.43033e-08
0.0405213
0.215278
-0.000967148
0.0405213
0.215278
-0.0016371
0.0400565
0.209488
-0.00177073
0.0391303
0.198245
-0.00123533
0.0377342
0.1822
0.0359285
0.162221
-2.34386e-08
0.00147671
0.0303319
0.14816
-1.23839e-09
0.00210929
0.031576
0.168088
0.0019425
0.0325228
0.183954
0.00114429
0.0331451
0.195001
-2.65745e-08
0.0334559
0.200666
-0.00114434
0.0334559
0.200666
-0.00194255
0.0331451
0.195001
-0.00210933
0.0325228
0.183954
-0.00147674
0.031576
0.168088
0.0303319
0.14816
-2.54431e-08
0.001732
0.129295
-1.63238e-09
0.0234837
0.00245581
0.14902
0.0242029
0.00224873
0.164529
0.0247691
0.00131906
0.175246
0.0251502
-2.80623e-08
0.180718
0.0253407
-0.00131912
0.180718
0.0253407
-0.00224878
0.175246
0.0251502
-0.00245585
0.164529
0.0247691
-0.00173204
0.14902
0.0242029
0.129295
-2.681e-08
0.0234837
2.10878e-06
0.00133738
0.0291985
-1.53929e-10
-2.71868e-07
0.00148499
0.0322261
1.30911e-07
0.00161336
0.0347769
1.46118e-07
0.00171135
0.0366221
-8.79951e-10
0.00176361
0.0375909
-1.4787e-07
0.00176361
0.0375909
-1.32607e-07
0.00171135
0.0366221
2.70326e-07
0.00161336
0.0347769
-2.11021e-06
0.00148499
0.0322261
0.00133738
0.0291985
-1.35499e-09
3.09385e-05
0.00479884
0.0785055
-3.23278e-10
4.00111e-05
0.00529665
0.0866646
3.68583e-05
0.00572433
0.0935145
2.18661e-05
0.00604205
0.0984572
-3.41839e-09
0.00621039
0.101048
-2.18728e-05
0.00621039
0.101048
-3.68647e-05
0.00604205
0.0984572
-4.00168e-05
0.00572434
0.0935145
-3.09436e-05
0.00529666
0.0866646
0.00479885
0.0785054
-4.45699e-09
8.63359e-05
0.00925957
0.116448
-3.7647e-10
0.00012239
0.0101637
0.128702
0.000112979
0.0109337
0.138941
6.70642e-05
0.0114954
0.146306
-6.49607e-09
0.0117914
0.15016
-6.7077e-05
0.0117914
0.15016
-0.000112991
0.0114954
0.146306
-0.0001224
0.0109337
0.13894
-8.63451e-05
0.0101637
0.128702
0.00925957
0.116448
-7.77499e-09
0.000168056
0.0136085
0.143682
-4.32621e-10
0.000244043
0.0148489
0.159071
0.000226667
0.0158952
0.171854
0.000134618
0.0166472
0.181018
-9.87343e-09
0.017041
0.185803
-0.000134637
0.017041
0.185803
-0.000226685
0.0166472
0.181018
-0.000244058
0.0158952
0.171854
-0.000168069
0.0148489
0.159071
0.0136085
0.143682
-1.11196e-08
0.000273133
0.01701
0.161005
-5.51711e-10
0.000398129
0.0184419
0.178673
0.000370536
0.0196357
0.193254
0.000220007
0.0204814
0.203664
-1.33693e-08
0.0209212
0.209087
-0.000220033
0.0209212
0.209087
-0.00037056
0.0204815
0.203664
-0.00039815
0.0196358
0.193254
-0.000273151
0.0184419
0.178673
0.01701
0.161005
-1.43935e-08
0.000396175
0.0189641
0.169318
-7.25316e-10
0.000575623
0.0204202
0.18853
0.000535535
0.0216162
0.204272
0.000317725
0.0224509
0.215462
-1.68094e-08
0.0228815
0.221275
-0.000317758
0.0228815
0.221275
-0.000535565
0.022451
0.215462
-0.000575649
0.0216162
0.204272
-0.000396197
0.0204202
0.18853
0.0189641
0.169318
-1.74547e-08
0.000529677
0.0192945
0.169578
-9.82773e-10
0.000766245
0.0206241
0.189722
0.000712041
0.0216959
0.206106
0.000422021
0.0224325
0.217695
-2.00021e-08
0.0228093
0.223697
-0.00042206
0.0228093
0.223697
-0.000712077
0.0224325
0.217695
-0.000766276
0.0216959
0.206106
-0.000529702
0.0206241
0.189722
0.0192945
0.169578
-2.01985e-08
0.000666877
0.0180956
0.162753
-1.3293e-09
0.000961855
0.0191875
0.183342
0.000892259
0.02005
0.19996
0.000528084
0.0206338
0.211651
-2.28053e-08
0.02093
0.217685
-0.000528129
0.02093
0.217685
-0.000892299
0.0206339
0.211651
-0.00096189
0.02005
0.19996
-0.000666905
0.0191875
0.183342
0.0180956
0.162753
-2.24921e-08
0.000807747
0.0156574
0.14979
-1.79052e-09
0.0011595
0.0164552
0.170469
0.00107132
0.0170732
0.187019
0.00063238
0.0174862
0.198587
-2.50371e-08
0.0176942
0.204534
-0.000632429
0.0176942
0.204534
-0.00107137
0.0174862
0.198587
-0.00115954
0.0170732
0.187019
-0.000807777
0.0164552
0.170469
0.0156574
0.14979
-2.41984e-08
0.000946899
0.131607
-2.27972e-09
0.0123984
0.00135134
0.15218
0.0128905
0.00124386
0.168432
0.0132772
0.000732055
0.179704
0.0135395
-2.65018e-08
0.185473
0.0136716
-0.000732107
0.185473
0.0136716
-0.00124391
0.179704
0.0135395
-0.00135138
0.168432
0.0132772
-0.000946931
0.15218
0.0128905
0.131607
-2.52275e-08
0.0123984
-5.57674e-06
0.000583985
0.0286201
-1.37582e-10
-8.31307e-06
0.000642451
0.0315864
-6.58323e-06
0.00069191
0.0340833
-3.62654e-06
0.000729508
0.0358897
-6.91916e-10
0.000749271
0.036838
3.62508e-06
0.000749271
0.036838
6.58184e-06
0.000729508
0.0358897
8.31182e-06
0.00069191
0.0340833
5.57546e-06
0.000642452
0.0315864
0.000583986
0.0286201
-1.20218e-09
-8.41829e-07
0.00203474
0.0770555
-2.92646e-10
-1.86194e-06
0.00224158
0.0850665
-5.94968e-07
0.00241783
0.0917873
1.90477e-07
0.00254885
0.0966371
-2.75677e-09
0.00261827
0.0991793
-1.95622e-07
0.00261827
0.0991793
5.89791e-07
0.00254886
0.0966371
1.85678e-06
0.00241784
0.0917873
8.37434e-07
0.00224159
0.0850665
0.00203474
0.0770555
-3.94638e-09
1.78081e-05
0.0039578
0.114508
-4.53267e-10
2.63481e-05
0.00435263
0.126583
2.58424e-05
0.0046891
0.13667
1.59711e-05
0.00493598
0.143929
-5.4052e-09
0.00506645
0.147728
-1.59818e-05
0.00506645
0.147728
-2.58524e-05
0.00493598
0.143929
-2.63569e-05
0.0046891
0.13667
-1.78159e-05
0.00435263
0.126583
0.00395781
0.114508
-6.89241e-09
5.10383e-05
0.00593198
0.141657
-5.90764e-10
7.59816e-05
0.00650055
0.156898
7.23294e-05
0.00698254
0.169564
4.36674e-05
0.0073319
0.178651
-8.34423e-09
0.00751569
0.183397
-4.36837e-05
0.00751569
0.183397
-7.23446e-05
0.00733191
0.178651
-7.5995e-05
0.00698255
0.169564
-5.10499e-05
0.00650056
0.156898
0.00593199
0.141657
-9.86125e-09
9.76181e-05
0.00758487
0.159254
-7.44367e-10
0.000144606
0.00827189
0.176854
0.00013655
0.00884888
0.191395
8.18595e-05
0.00926188
0.201789
-1.14194e-08
0.00947783
0.207206
-8.18818e-05
0.00947784
0.207206
-0.00013657
0.00926188
0.201789
-0.000144624
0.00884888
0.191395
-9.76333e-05
0.0082719
0.176854
0.00758488
0.159254
-1.27658e-08
0.000155404
0.00865045
0.168097
-9.55681e-10
0.000228599
0.00937965
0.187349
0.000214905
0.00998396
0.203151
0.000128369
0.0104107
0.2144
-1.44728e-08
0.0106323
0.220249
-0.000128398
0.0106323
0.220249
-0.000214931
0.0104107
0.2144
-0.000228621
0.00998397
0.203151
-0.000155423
0.00937966
0.187349
0.00865047
0.168097
-1.54751e-08
0.000221153
0.00899179
0.169015
-1.26243e-09
0.00032335
0.00968519
0.189314
0.000303009
0.0102501
0.20586
0.000180552
0.0106433
0.217585
-1.73312e-08
0.0108458
0.223664
-0.000180586
0.0108458
0.223664
-0.00030304
0.0106433
0.217585
-0.000323377
0.0102501
0.20586
-0.000221175
0.0096852
0.189314
0.0089918
0.169015
-1.78964e-08
0.000291827
0.00859871
0.162854
-1.6278e-09
0.000424898
0.00919153
0.183703
0.000396901
0.0096653
0.200573
0.000235916
0.00999024
0.212465
-1.98577e-08
0.0101562
0.218611
-0.000235955
0.0101562
0.218611
-0.000396936
0.00999025
0.212465
-0.000424928
0.00966531
0.200573
-0.000291851
0.00919154
0.183703
0.00859872
0.162854
-1.99186e-08
0.000367586
0.00756734
0.150454
-2.04932e-09
0.000531514
0.00801997
0.171476
0.000493739
0.00837425
0.188348
0.000292422
0.00861372
0.200165
-2.18812e-08
0.00873504
0.206248
-0.000292465
0.00873504
0.206248
-0.000493778
0.00861373
0.200165
-0.000531547
0.00837426
0.188348
-0.000367612
0.00801998
0.171476
0.00756735
0.150454
-2.14327e-08
0.000443533
0.132653
-2.50174e-09
0.00607788
0.000637562
0.153635
0.00637111
0.000589992
0.170251
0.00660264
0.000348359
0.181799
0.00676062
-2.32317e-08
0.187716
0.00684053
-0.000348404
0.187716
0.00684053
-0.000590033
0.181799
0.00676062
-0.000637597
0.170251
0.00660265
-0.00044356
0.153635
0.00637112
0.132653
-2.23625e-08
0.00607788
-8.44895e-07
0.000190402
0.0284306
-9.24445e-11
-1.63865e-06
0.000210896
0.0313763
-1.19084e-06
0.000228727
0.0338541
-6.35493e-07
0.000242722
0.0356464
-5.41177e-10
0.000250189
0.0365871
6.34427e-07
0.000250189
0.0365871
1.18979e-06
0.000242722
0.0356464
1.6376e-06
0.000228728
0.0338541
8.43884e-07
0.000210897
0.0313763
0.000190403
0.0284306
-9.80595e-10
1.85712e-06
0.000743133
0.076501
-1.45464e-10
1.98417e-06
0.000822909
0.0844544
2.14932e-06
0.000891993
0.0911238
1.40752e-06
0.000944267
0.0959363
-2.19977e-09
0.00097217
0.0984588
-1.41183e-06
0.00097217
0.0984588
-2.15345e-06
0.000944268
0.0959363
-1.98797e-06
0.000891995
0.0911238
-1.86045e-06
0.000822911
0.0844544
0.000743135
0.0765009
-3.23575e-09
1.00129e-05
0.00152799
0.113713
-2.84213e-10
1.40616e-05
0.0016888
0.125713
1.33524e-05
0.00182741
0.135735
8.09001e-06
0.00193044
0.142948
-4.28024e-09
0.00198526
0.146723
-8.09841e-06
0.00198526
0.146723
-1.33603e-05
0.00193045
0.142948
-1.40688e-05
0.00182741
0.135735
-1.00192e-05
0.00168881
0.125713
0.00152799
0.113713
-5.70476e-09
2.42734e-05
0.00237649
0.140784
-4.56644e-10
3.53679e-05
0.00261805
0.155958
3.3315e-05
0.0028249
0.168569
1.99883e-05
0.0029766
0.177618
-6.6554e-09
0.00305692
0.182346
-2.00013e-05
0.00305692
0.182346
-3.33272e-05
0.00297661
0.177618
-3.53787e-05
0.0028249
0.168569
-2.42827e-05
0.00261806
0.155958
0.00237649
0.140784
-8.20733e-09
4.47089e-05
0.00312758
0.158458
-6.73153e-10
6.56623e-05
0.00343024
0.176021
6.17524e-05
0.00368701
0.190537
3.69335e-05
0.00387294
0.200917
-9.19454e-09
0.0039708
0.206329
-3.69515e-05
0.0039708
0.206329
-6.17691e-05
0.00387295
0.200917
-6.5677e-05
0.00368702
0.190537
-4.47213e-05
0.00343025
0.176021
0.00312759
0.158458
-1.0664e-08
7.0756e-05
0.00365383
0.1675
-9.27436e-10
0.000103867
0.00398561
0.18676
9.75537e-05
0.00426354
0.202581
5.82413e-05
0.00446216
0.21385
-1.17526e-08
0.00456596
0.219712
-5.82642e-05
0.00456596
0.219712
-9.75748e-05
0.00446216
0.21385
-0.000103886
0.00426355
0.202581
-7.07713e-05
0.00398562
0.18676
0.00365384
0.1675
-1.29623e-08
0.000101221
0.00387733
0.168691
-1.23419e-09
0.000148187
0.00420223
0.18905
0.00013896
0.00447005
0.205663
8.28323e-05
0.00465874
0.217444
-1.41705e-08
0.00475657
0.223556
-8.28599e-05
0.00475657
0.223556
-0.000138985
0.00465874
0.217444
-0.000148209
0.00447006
0.205663
-0.000101239
0.00420224
0.18905
0.00387734
0.168691
-1.50213e-08
0.000134812
0.00377516
0.162822
-1.58556e-09
0.000196777
0.00406087
0.183782
0.000184055
0.00429202
0.200764
0.000109485
0.00445236
0.212746
-1.63307e-08
0.00453475
0.218942
-0.000109517
0.00453475
0.218942
-0.000184084
0.00445237
0.212746
-0.000196802
0.00429203
0.200764
-0.000134832
0.00406088
0.183782
0.00377517
0.162822
-1.67408e-08
0.00017127
0.00337557
0.150682
-1.99629e-09
0.000248208
0.00360027
0.17186
0.000230929
0.00377775
0.18888
0.000136913
0.00389879
0.200813
-1.80915e-08
0.0039604
0.206959
-0.000136948
0.0039604
0.206959
-0.000230961
0.00389879
0.200812
-0.000248236
0.00377776
0.18888
-0.000171292
0.00360028
0.17186
0.00337557
0.150682
-1.802e-08
0.000206043
0.13307
-2.4013e-09
0.00275255
0.000297598
0.154241
0.00290202
0.000276349
0.17103
0.00302033
0.000163525
0.182709
0.00310143
-1.93015e-08
0.188697
0.00314262
-0.000163562
0.188697
0.00314262
-0.000276383
0.182709
0.00310143
-0.000297627
0.17103
0.00302033
-0.000206066
0.154241
0.00290202
0.13307
-1.88075e-08
0.00275256
-1.37936e-06
7.77086e-05
0.0283542
-1.00943e-10
-1.9855e-06
8.53187e-05
0.0312916
-1.59338e-06
9.18305e-05
0.0337619
-8.78756e-07
9.69016e-05
0.0355488
-3.83318e-10
9.95809e-05
0.0364867
8.77991e-07
9.9581e-05
0.0364867
1.59264e-06
9.69019e-05
0.0355488
1.98476e-06
9.18309e-05
0.0337619
1.3786e-06
8.53192e-05
0.0312916
7.7709e-05
0.0283542
-7.5074e-10
-1.61122e-06
0.000292599
0.0762877
-2.14901e-10
-2.42324e-06
0.000323212
0.0842173
-1.93774e-06
0.000349658
0.0908655
-1.02655e-06
0.000369714
0.0956626
-1.61781e-09
0.00038041
0.0981769
1.02336e-06
0.00038041
0.0981769
1.9347e-06
0.000369715
0.0956626
2.42036e-06
0.00034966
0.0908655
1.60849e-06
0.000323214
0.0842173
0.0002926
0.0762877
-2.51755e-09
8.7699e-07
0.000602671
0.113402
-3.37828e-10
1.1585e-06
0.000666734
0.125369
1.36551e-06
0.000721962
0.135363
9.54674e-07
0.00076323
0.142555
-3.20874e-09
0.000785236
0.146319
-9.60971e-07
0.000785237
0.146319
-1.37146e-06
0.000763232
0.142555
-1.16387e-06
0.000721965
0.135363
-8.8152e-07
0.000666737
0.125369
0.000602674
0.113402
-4.40854e-09
6.05467e-06
0.000949251
0.140432
-4.79658e-10
8.95577e-06
0.00104867
0.155573
8.6789e-06
0.00113404
0.168157
5.31576e-06
0.00119706
0.177188
-5.05376e-09
0.00123053
0.181906
-5.32565e-06
0.00123053
0.181906
-8.68817e-06
0.00119706
0.177188
-8.9641e-06
0.00113405
0.168157
-6.06189e-06
0.00104867
0.155573
0.000949256
0.140432
-6.4439e-09
1.4169e-05
0.0012687
0.158125
-6.50025e-10
2.10116e-05
0.00139706
0.175666
2.0002e-05
0.00150642
0.190166
1.20671e-05
0.00158617
0.200536
-7.05213e-09
0.00162831
0.205944
-1.20808e-05
0.00162831
0.205944
-2.00148e-05
0.00158617
0.200536
-2.1023e-05
0.00150643
0.190166
-1.41787e-05
0.00139707
0.175666
0.00126871
0.158125
-8.43599e-09
2.49837e-05
0.00150564
0.167238
-8.62906e-10
3.69552e-05
0.00165031
0.186495
3.49743e-05
0.00177213
0.202317
2.0989e-05
0.00185983
0.21359
-9.09117e-09
0.00190585
0.219455
-2.10067e-05
0.00190585
0.219455
-3.49907e-05
0.00185983
0.21359
-3.69696e-05
0.00177213
0.202317
-2.49956e-05
0.00165032
0.186495
0.00150565
0.167238
-1.0301e-08
3.80575e-05
0.00162181
0.168536
-1.13339e-09
5.61031e-05
0.00176721
0.188915
5.29192e-05
0.00188777
0.20555
3.16638e-05
0.00197336
0.217352
-1.10424e-08
0.00201793
0.223476
-3.16853e-05
0.00201793
0.223476
-5.2939e-05
0.00197337
0.217352
-5.61203e-05
0.00188778
0.20555
-3.80717e-05
0.00176722
0.188915
0.00162182
0.168536
-1.19826e-08
5.29075e-05
0.0016008
0.16279
-1.43738e-09
7.77179e-05
0.0017319
0.183792
7.30421e-05
0.00183866
0.200818
4.35771e-05
0.00191326
0.212836
-1.28059e-08
0.00195175
0.219052
-4.3602e-05
0.00195175
0.219052
-7.30649e-05
0.00191326
0.212836
-7.77376e-05
0.00183866
0.200818
-5.29234e-05
0.00173191
0.183792
0.00160081
0.16279
-1.3401e-08
6.95035e-05
0.00144854
0.150765
-1.76623e-09
0.000101217
0.00155434
0.172006
9.45162e-05
0.00163841
0.189087
5.61639e-05
0.0016961
0.201068
-1.4267e-08
0.00172557
0.207241
-5.61916e-05
0.00172557
0.207241
-9.45415e-05
0.0016961
0.201068
-0.000101239
0.00163841
0.189087
-6.95209e-05
0.00155435
0.172006
0.00144855
0.150765
-1.44725e-08
8.56513e-05
0.13324
-2.09012e-09
0.00119284
0.000124342
0.154492
0.00126512
0.000115902
0.171354
0.00132258
6.87389e-05
0.18309
0.00136213
-1.53055e-08
0.189109
0.00138226
-6.87686e-05
0.189109
0.00138226
-0.000115929
0.18309
0.00136213
-0.000124365
0.171354
0.00132259
-8.56694e-05
0.154492
0.00126513
0.13324
-1.51507e-08
0.00119284
-3.98208e-07
2.03818e-05
0.0283343
-7.39693e-11
-6.12393e-07
2.25754e-05
0.0312692
-4.90589e-07
2.45761e-05
0.0337372
-2.7178e-07
2.62204e-05
0.0355223
-2.55703e-10
2.71068e-05
0.0364593
2.71268e-07
2.71069e-05
0.0364593
4.90079e-07
2.62206e-05
0.0355223
6.11875e-07
2.45764e-05
0.0337372
3.97673e-07
2.25757e-05
0.0312692
2.03822e-05
0.0283342
-5.43093e-10
-5.07676e-07
9.12234e-05
0.0762173
-1.64883e-10
-8.6276e-07
0.000101546
0.0841387
-7.17269e-07
0.000110726
0.0907792
-3.91029e-07
0.000117867
0.0955706
-1.12939e-09
0.00012172
0.0980819
3.88795e-07
0.00012172
0.0980819
7.15122e-07
0.000117868
0.0955706
8.60703e-07
0.000110727
0.0907792
5.05717e-07
0.000101547
0.0841387
9.12246e-05
0.0762173
-1.85138e-09
3.56111e-07
0.000202558
0.11329
-2.71334e-10
3.36359e-07
0.000225662
0.125245
3.70459e-07
0.000245944
0.135227
2.57524e-07
0.000261365
0.142412
-2.29021e-09
0.00026966
0.146171
-2.62025e-07
0.000269661
0.146171
-3.74729e-07
0.000261366
0.142412
-3.40242e-07
0.000245945
0.135227
-3.59381e-07
0.000225664
0.125245
0.000202561
0.11329
-3.269e-09
2.28377e-06
0.000333916
0.140298
-3.98149e-10
3.2241e-06
0.000371369
0.155426
3.06938e-06
0.000403983
0.167999
1.86441e-06
0.000428397
0.177022
-3.66173e-09
0.000441462
0.181736
-1.87159e-06
0.000441463
0.181736
-3.07611e-06
0.000428399
0.177022
-3.2302e-06
0.000403986
0.167999
-2.28906e-06
0.000371373
0.155426
0.000333919
0.140298
-4.81827e-09
5.43439e-06
0.00046105
0.157992
-5.52567e-10
7.91975e-06
0.00051105
0.175524
7.48313e-06
0.000554159
0.190016
4.49765e-06
0.000585991
0.200382
-5.16783e-09
0.000602922
0.205787
-4.50776e-06
0.000602923
0.205787
-7.49254e-06
0.000585994
0.200382
-7.92814e-06
0.000554163
0.190016
-5.44153e-06
0.000511054
0.175524
0.000461055
0.157992
-6.35455e-09
9.76471e-06
0.000561155
0.167128
-7.34591e-10
1.43481e-05
0.000619075
0.186382
1.3537e-05
0.000668388
0.202204
8.11092e-06
0.000704301
0.213477
-6.72341e-09
0.000723266
0.219343
-8.12404e-06
0.000723267
0.219343
-1.35492e-05
0.000704304
0.213477
-1.43587e-05
0.000668392
0.202203
-9.77365e-06
0.000619081
0.186382
0.000561161
0.167128
-7.80978e-09
1.51324e-05
0.000616985
0.168465
-9.4745e-10
2.22718e-05
0.000676593
0.188851
2.09891e-05
0.000726547
0.205493
1.25525e-05
0.000762389
0.217302
-8.23206e-09
0.000781158
0.22343
-1.25685e-05
0.000781159
0.22343
-2.10039e-05
0.000762392
0.217302
-2.22847e-05
0.000726552
0.205493
-1.5143e-05
0.000676599
0.188851
0.000616992
0.168465
-9.1401e-09
2.1353e-05
0.000619518
0.162766
-1.17904e-09
3.13811e-05
0.000674452
0.183785
2.94966e-05
0.000719612
0.200826
1.75989e-05
0.000751463
0.212858
-9.61845e-09
0.000767974
0.219083
-1.76177e-05
0.000767975
0.219083
-2.95138e-05
0.000751466
0.212858
-3.1396e-05
0.000719617
0.200826
-2.13651e-05
0.000674457
0.183785
0.000619524
0.162766
-1.02853e-08
2.83515e-05
0.000568903
0.150787
-1.43132e-09
4.13275e-05
0.000614211
0.172053