/*--------------------------------*- C++ -*----------------------------------*\
| =========                 |                                                 |
| \\      /  F ield         | OpenFOAM: The Open Source CFD Toolbox           |
|  \\    /   O peration     | Version:  2106                                  |
|   \\  /    A nd           | Website:  www.openfoam.com                      |
|    \\/     M anipulation  |                                                 |
\*---------------------------------------------------------------------------*/
FoamFile
{
    version     2.0;
    format      ascii;
    arch        "LSB;label=32;scalar=64";
    class       volVectorField;
    location    "0.95";
    object      U;
}
// * * * * * * * * * * * * * * * * * * * * * * * * * * * * * * * * * * * * * //

dimensions      [0 1 -1 0 0 0 0];

internalField   nonuniform List<vector> 
10000
(
(0.0625615 0.0737187 0.345088)
(0.0533575 0.0838386 0.359567)
(0.0398483 0.0929897 0.370931)
(0.0247204 0.0993719 0.378779)
(0.00837764 0.102672 0.382767)
(-0.00837764 0.102672 0.382767)
(-0.0247204 0.0993719 0.378779)
(-0.0398483 0.0929897 0.370931)
(-0.0533575 0.0838386 0.359567)
(-0.0625615 0.0737186 0.345088)
(0.17206 0.20413 0.727809)
(0.145241 0.231373 0.747457)
(0.108431 0.255334 0.762095)
(0.0670869 0.271921 0.771992)
(0.0227088 0.280476 0.77694)
(-0.0227088 0.280476 0.77694)
(-0.0670869 0.271921 0.771992)
(-0.108431 0.255334 0.762095)
(-0.145241 0.231373 0.747457)
(-0.17206 0.20413 0.727809)
(0.222639 0.264363 0.923709)
(0.185832 0.296074 0.939534)
(0.13785 0.323764 0.950597)
(0.0848667 0.342708 0.957899)
(0.0286566 0.352415 0.96148)
(-0.0286566 0.352415 0.96148)
(-0.0848667 0.342708 0.957899)
(-0.13785 0.323764 0.950597)
(-0.185832 0.296074 0.939534)
(-0.222639 0.264363 0.923709)
(0.237667 0.281753 1.02282)
(0.196433 0.311636 1.03332)
(0.144814 0.337783 1.03999)
(0.0887415 0.35547 1.04425)
(0.0298972 0.364474 1.04628)
(-0.0298972 0.364474 1.04628)
(-0.0887416 0.35547 1.04425)
(-0.144814 0.337783 1.03999)
(-0.196433 0.311636 1.03332)
(-0.237667 0.281753 1.02282)
(0.235739 0.278971 1.07116)
(0.193241 0.304976 1.07712)
(0.141712 0.327867 1.08024)
(0.0864923 0.343219 1.08212)
(0.0290833 0.350987 1.08297)
(-0.0290833 0.350987 1.08297)
(-0.0864923 0.343219 1.08212)
(-0.141712 0.327867 1.08024)
(-0.193241 0.304976 1.07712)
(-0.235739 0.278971 1.07116)
(0.224743 0.265474 1.09224)
(0.182834 0.286888 1.09482)
(0.133445 0.30589 1.09547)
(0.0811467 0.318559 1.09572)
(0.0272379 0.324933 1.09577)
(-0.0272379 0.324933 1.09577)
(-0.0811468 0.318559 1.09572)
(-0.133445 0.30589 1.09547)
(-0.182834 0.286888 1.09482)
(-0.224743 0.265474 1.09224)
(0.208418 0.245561 1.09885)
(0.16827 0.262144 1.09913)
(0.122265 0.277006 1.09822)
(0.0740881 0.286896 1.09746)
(0.0248269 0.291851 1.09702)
(-0.024827 0.291851 1.09702)
(-0.0740881 0.286896 1.09746)
(-0.122265 0.277006 1.09822)
(-0.16827 0.262144 1.09913)
(-0.208418 0.245561 1.09885)
(0.189092 0.221956 1.09816)
(0.151492 0.233752 1.09699)
(0.109611 0.244461 1.09519)
(0.0662037 0.251623 1.09388)
(0.0221498 0.25521 1.09319)
(-0.0221499 0.25521 1.09319)
(-0.0662037 0.251623 1.09388)
(-0.109611 0.244461 1.09519)
(-0.151492 0.233752 1.09699)
(-0.189092 0.221956 1.09816)
(0.168299 0.196447 1.09418)
(0.133871 0.203641 1.09212)
(0.0964693 0.210323 1.08991)
(0.0580844 0.214921 1.08836)
(0.0194038 0.217244 1.08758)
(-0.0194039 0.217244 1.08758)
(-0.0580845 0.214921 1.08836)
(-0.0964693 0.210323 1.08991)
(-0.133871 0.203641 1.09212)
(-0.168299 0.196447 1.09418)
(0.1472 0.170684 1.08914)
(0.116608 0.171787 1.08662)
(0.0834477 0.175069 1.08426)
(0.0500589 0.17746 1.08267)
(0.0166931 0.17869 1.08187)
(-0.0166932 0.17869 1.08187)
(-0.0500589 0.17746 1.08267)
(-0.0834477 0.175069 1.08426)
(-0.116608 0.171787 1.08662)
(-0.1472 0.170684 1.08914)
(0.0111954 0.0143008 0.266507)
(0.00940575 0.0175915 0.278768)
(0.00710215 0.020235 0.288809)
(0.00449589 0.0220473 0.295798)
(0.00153827 0.0229915 0.299375)
(-0.00153828 0.0229915 0.299375)
(-0.00449589 0.0220473 0.295798)
(-0.00710216 0.020235 0.288809)
(-0.00940575 0.0175915 0.278768)
(-0.0111954 0.0143008 0.266507)
(0.0544204 0.0658459 0.62947)
(0.0467307 0.0792214 0.651412)
(0.0357644 0.0906827 0.66901)
(0.0226105 0.0988038 0.681112)
(0.00773751 0.103067 0.687255)
(-0.00773753 0.103067 0.687255)
(-0.0226105 0.0988038 0.681112)
(-0.0357644 0.0906827 0.66901)
(-0.0467307 0.0792214 0.651412)
(-0.0544204 0.0658459 0.62947)
(0.0977964 0.116811 0.87641)
(0.0834386 0.138152 0.90023)
(0.0635222 0.156467 0.918914)
(0.0399188 0.169393 0.931608)
(0.0136201 0.176144 0.938)
(-0.0136201 0.176144 0.938)
(-0.0399188 0.169393 0.931608)
(-0.0635222 0.156467 0.918914)
(-0.0834386 0.138152 0.90023)
(-0.0977964 0.116811 0.87641)
(0.133891 0.158747 1.04416)
(0.113266 0.184886 1.06616)
(0.0856762 0.207211 1.08299)
(0.053536 0.222855 1.09429)
(0.0182144 0.23098 1.09993)
(-0.0182145 0.23098 1.09993)
(-0.053536 0.222855 1.09429)
(-0.0856762 0.207211 1.08299)
(-0.113266 0.184886 1.06616)
(-0.133891 0.158747 1.04416)
(0.159743 0.188321 1.1572)
(0.13398 0.216199 1.17582)
(0.100711 0.239852 1.18969)
(0.0626071 0.256307 1.19888)
(0.021246 0.264806 1.20343)
(-0.0212461 0.264806 1.20343)
(-0.0626071 0.256307 1.19888)
(-0.100711 0.239852 1.18969)
(-0.13398 0.216199 1.17582)
(-0.159743 0.188321 1.1572)
(0.175393 0.205702 1.23226)
(0.145864 0.232834 1.24708)
(0.108984 0.255653 1.2578)
(0.0674271 0.271422 1.2648)
(0.0228274 0.279524 1.26823)
(-0.0228275 0.279524 1.26823)
(-0.0674272 0.271422 1.2648)
(-0.108984 0.255653 1.2578)
(-0.145864 0.232834 1.24708)
(-0.175393 0.205702 1.23226)
(0.181899 0.212233 1.28114)
(0.149984 0.236717 1.29238)
(0.111407 0.257069 1.30024)
(0.0686158 0.271048 1.30528)
(0.0231778 0.278197 1.30773)
(-0.0231778 0.278197 1.30773)
(-0.0686158 0.271048 1.30528)
(-0.111407 0.257069 1.30024)
(-0.149984 0.236717 1.29238)
(-0.181899 0.212233 1.28114)
(0.1806 0.209541 1.31221)
(0.147626 0.229997 1.32035)
(0.109034 0.246725 1.32583)
(0.0668685 0.258161 1.32928)
(0.0225396 0.263991 1.33093)
(-0.0225397 0.263991 1.33093)
(-0.0668686 0.258161 1.32928)
(-0.109034 0.246725 1.32583)
(-0.147626 0.229997 1.32035)
(-0.1806 0.209541 1.31221)
(0.172953 0.1993 1.33128)
(0.140205 0.214794 1.33694)
(0.102968 0.227106 1.34059)
(0.0628784 0.23554 1.34282)
(0.0211497 0.239836 1.34386)
(-0.0211498 0.239836 1.34386)
(-0.0628785 0.23554 1.34282)
(-0.102968 0.227106 1.34059)
(-0.140205 0.214794 1.33694)
(-0.172953 0.1993 1.33128)
(0.160524 0.184316 1.34248)
(0.129266 0.192255 1.34631)
(0.0941568 0.1998 1.34859)
(0.0572086 0.205005 1.34991)
(0.0191955 0.207653 1.35051)
(-0.0191956 0.207653 1.35051)
(-0.0572087 0.205005 1.34991)
(-0.0941569 0.1998 1.34859)
(-0.129266 0.192255 1.34631)
(-0.160524 0.184316 1.34248)
(0.00112222 0.00125328 0.157611)
(0.00113335 0.00160044 0.165909)
(0.000883481 0.00200866 0.172838)
(0.000591396 0.00231104 0.177744)
(0.00020608 0.0024786 0.180283)
(-0.000206086 0.0024786 0.180283)
(-0.000591401 0.00231104 0.177744)
(-0.000883486 0.00200866 0.172838)
(-0.00113336 0.00160043 0.165909)
(-0.00112223 0.00125328 0.157611)
(0.0180226 0.0209131 0.441559)
(0.0162078 0.0255139 0.461758)
(0.012685 0.0298435 0.478347)
(0.00814706 0.0330413 0.48999)
(0.00280732 0.0347591 0.495982)
(-0.00280734 0.0347591 0.495982)
(-0.00814708 0.0330413 0.48999)
(-0.012685 0.0298435 0.478347)
(-0.0162078 0.0255139 0.461758)
(-0.0180226 0.0209131 0.441559)
(0.0410844 0.0478215 0.685094)
(0.0362862 0.0574542 0.712667)
(0.0281906 0.0662404 0.73495)
(0.0179579 0.0726651 0.75046)
(0.00616578 0.0760866 0.758403)
(-0.00616582 0.0760866 0.758403)
(-0.0179579 0.0726651 0.75046)
(-0.0281907 0.0662404 0.73495)
(-0.0362862 0.0574542 0.712667)
(-0.0410844 0.0478215 0.685094)
(0.0659691 0.076848 0.887688)
(0.0575017 0.0910336 0.918865)
(0.0443435 0.103726 0.943642)
(0.0280669 0.112909 0.960742)
(0.00960751 0.117764 0.969456)
(-0.00960757 0.117764 0.969456)
(-0.0280669 0.112909 0.960742)
(-0.0443435 0.103726 0.943642)
(-0.0575017 0.0910336 0.918865)
(-0.0659691 0.076848 0.887688)
(0.0882036 0.102632 1.05277)
(0.0760106 0.119903 1.08477)
(0.0582017 0.135128 1.10977)
(0.0366316 0.146038 1.12688)
(0.0125052 0.151768 1.13555)
(-0.0125053 0.151768 1.13555)
(-0.0366316 0.146038 1.12688)
(-0.0582018 0.135128 1.10977)
(-0.0760107 0.119903 1.08477)
(-0.0882037 0.102632 1.05277)
(0.105544 0.122492 1.18525)
(0.0900012 0.141097 1.21619)
(0.0684435 0.157274 1.23995)
(0.0428536 0.168763 1.25608)
(0.0145923 0.174763 1.26421)
(-0.0145924 0.174763 1.26421)
(-0.0428537 0.168763 1.25608)
(-0.0684436 0.157274 1.23995)
(-0.0900013 0.141097 1.21619)
(-0.105544 0.122492 1.18525)
(0.117139 0.135459 1.29025)
(0.0988754 0.153711 1.31898)
(0.0746881 0.169345 1.34068)
(0.0465309 0.18036 1.3553)
(0.0158058 0.18608 1.36264)
(-0.0158059 0.18608 1.36264)
(-0.046531 0.18036 1.3553)
(-0.0746882 0.169345 1.34068)
(-0.0988755 0.153711 1.31898)
(-0.117139 0.135459 1.29025)
(0.122862 0.141421 1.37255)
(0.102664 0.157842 1.39847)
(0.0770363 0.171659 1.41777)
(0.0477607 0.181321 1.43067)
(0.0161845 0.186316 1.43711)
(-0.0161846 0.186316 1.43711)
(-0.0477608 0.181321 1.43067)
(-0.0770364 0.171659 1.41777)
(-0.102665 0.157842 1.39847)
(-0.122862 0.141421 1.37255)
(0.123112 0.140813 1.43624)
(0.10186 0.154222 1.45925)
(0.0759023 0.165177 1.47612)
(0.0468157 0.172805 1.48728)
(0.0158237 0.176731 1.49283)
(-0.0158238 0.176731 1.49283)
(-0.0468158 0.172805 1.48728)
(-0.0759024 0.165177 1.47612)
(-0.10186 0.154222 1.45925)
(-0.123112 0.140813 1.43624)
(0.118705 0.13545 1.48468)
(0.097255 0.143512 1.50527)
(0.0717573 0.150803 1.5198)
(0.0439845 0.155854 1.52928)
(0.0148215 0.158438 1.53395)
(-0.0148216 0.158438 1.53395)
(-0.0439847 0.155854 1.52928)
(-0.0717575 0.150803 1.5198)
(-0.0972551 0.143512 1.50527)
(-0.118706 0.13545 1.48467)
(0.00071356 0.000937097 0.13786)
(0.000557788 0.00117498 0.144666)
(0.000382028 0.0013437 0.150207)
(0.00023694 0.00144357 0.154097)
(7.93483e-05 0.00149357 0.156103)
(-7.93541e-05 0.00149356 0.156103)
(-0.000236945 0.00144357 0.154097)
(-0.000382033 0.0013437 0.150207)
(-0.000557792 0.00117498 0.144666)
(-0.000713563 0.000937094 0.13786)
(0.00704542 0.00842405 0.395305)
(0.00611825 0.0103834 0.413366)
(0.00470503 0.0120789 0.427987)
(0.00300188 0.0132962 0.43822)
(0.00103097 0.0139439 0.443487)
(-0.00103099 0.0139439 0.443487)
(-0.00300191 0.0132962 0.43822)
(-0.00470505 0.0120789 0.427987)
(-0.00611827 0.0103834 0.413366)
(-0.00704543 0.00842404 0.395305)
(0.0172806 0.0204035 0.628382)
(0.0150755 0.0248429 0.655046)
(0.0116677 0.0287391 0.676465)
(0.00743354 0.031568 0.691394)
(0.00255287 0.0330729 0.699057)
(-0.00255291 0.0330729 0.699057)
(-0.00743358 0.031568 0.691394)
(-0.0116678 0.0287391 0.676465)
(-0.0150755 0.0248428 0.655046)
(-0.0172807 0.0204035 0.628382)
(0.0296517 0.0348121 0.835184)
(0.0257837 0.04188 0.86777)
(0.0199296 0.0480826 0.893702)
(0.0126569 0.0525814 0.911687)
(0.0043406 0.0549675 0.92089)
(-0.00434067 0.0549675 0.92089)
(-0.012657 0.0525814 0.911687)
(-0.0199296 0.0480825 0.893702)
(-0.0257838 0.04188 0.86777)
(-0.0296517 0.0348121 0.835183)
(0.0421066 0.049214 1.01567)
(0.0363884 0.0584593 1.05176)
(0.0280137 0.0665268 1.08018)
(0.0177207 0.0723492 1.09979)
(0.00606565 0.0754241 1.10979)
(-0.00606573 0.0754241 1.10979)
(-0.0177208 0.0723492 1.09979)
(-0.0280138 0.0665268 1.08018)
(-0.0363884 0.0584593 1.05176)
(-0.0421066 0.049214 1.01567)
(0.0531529 0.06185 1.171)
(0.0455864 0.0724739 1.20857)
(0.03491 0.081658 1.23783)
(0.0219867 0.0882426 1.2579)
(0.00750974 0.0917032 1.26811)
(-0.00750984 0.0917032 1.26811)
(-0.0219868 0.0882426 1.2579)
(-0.0349101 0.081658 1.23783)
(-0.0455865 0.0724739 1.20857)
(-0.053153 0.06185 1.171)
(0.0618037 0.0715785 1.30298)
(0.0525542 0.0826264 1.34042)
(0.0400053 0.092056 1.36926)
(0.025079 0.0987665 1.38894)
(0.00854633 0.102275 1.39891)
(-0.00854645 0.102275 1.39891)
(-0.0250792 0.0987665 1.38894)
(-0.0400054 0.092056 1.36926)
(-0.0525543 0.0826264 1.34042)
(-0.0618038 0.0715785 1.30298)
(0.0674661 0.0777158 1.41363)
(0.056843 0.0882124 1.44978)
(0.0429922 0.0970249 1.47732)
(0.0268211 0.103245 1.49601)
(0.00911781 0.106481 1.50544)
(-0.00911795 0.106481 1.50544)
(-0.0268213 0.103245 1.49601)
(-0.0429924 0.0970249 1.47732)
(-0.0568431 0.0882124 1.44978)
(-0.0674662 0.0777158 1.41363)
(0.0699436 0.0799973 1.50494)
(0.0583686 0.0890619 1.53912)
(0.0438323 0.0964586 1.56484)
(0.0271976 0.101642 1.58215)
(0.00922061 0.104324 1.59083)
(-0.00922076 0.104324 1.59083)
(-0.0271977 0.101642 1.58215)
(-0.0438324 0.0964586 1.56484)
(-0.0583687 0.0890619 1.53912)
(-0.0699437 0.0799973 1.50494)
(0.069416 0.079212 1.57858)
(0.0573203 0.0852374 1.61105)
(0.0426069 0.0904741 1.63458)
(0.0262613 0.0941091 1.6502)
(0.00887368 0.095975 1.65797)
(-0.00887384 0.095975 1.65797)
(-0.0262615 0.0941091 1.6502)
(-0.0426071 0.0904741 1.63458)
(-0.0573205 0.0852374 1.61105)
(-0.0694161 0.079212 1.57858)
(0.000130613 0.000142861 0.126926)
(0.000120991 0.00018724 0.133265)
(8.94035e-05 0.000232704 0.138419)
(6.11632e-05 0.000264571 0.142042)
(2.11265e-05 0.000282639 0.143913)
(-2.11316e-05 0.000282638 0.143913)
(-6.11681e-05 0.00026457 0.142042)
(-8.9408e-05 0.000232702 0.138419)
(-0.000120996 0.000187238 0.133265)
(-0.000130616 0.000142858 0.126926)
(0.00251465 0.00290867 0.368084)
(0.00224926 0.00360591 0.385327)
(0.00176181 0.00424805 0.399296)
(0.0011387 0.00472585 0.409098)
(0.000393197 0.00498521 0.414149)
(-0.000393217 0.00498521 0.414149)
(-0.00113872 0.00472584 0.409098)
(-0.00176183 0.00424805 0.399296)
(-0.00224928 0.0036059 0.385327)
(-0.00251466 0.00290866 0.368084)
(0.00685021 0.00794676 0.591678)
(0.00608625 0.00974209 0.617852)
(0.00477066 0.0113725 0.638944)
(0.00306586 0.0125855 0.653703)
(0.00105706 0.0132393 0.661296)
(-0.0010571 0.0132393 0.661296)
(-0.0030659 0.0125855 0.653703)
(-0.0047707 0.0113725 0.638944)
(-0.00608628 0.00974208 0.617852)
(-0.00685024 0.00794675 0.591678)
(0.0125732 0.0145882 0.796214)
(0.011098 0.0176894 0.829261)
(0.00867393 0.0204796 0.855709)
(0.00555063 0.022545 0.874152)
(0.00191044 0.0236526 0.88362)
(-0.0019105 0.0236526 0.88362)
(-0.00555068 0.022545 0.874152)
(-0.00867398 0.0204796 0.855709)
(-0.0110981 0.0176894 0.829261)
(-0.0125732 0.0145882 0.796214)
(0.0188075 0.0217864 0.980959)
(0.0164811 0.0261076 1.01887)
(0.0128237 0.0299595 1.04896)
(0.00817166 0.0327919 1.06987)
(0.0028071 0.0343035 1.08058)
(-0.00280718 0.0343035 1.08058)
(-0.00817173 0.0327919 1.06987)
(-0.0128238 0.0299595 1.04896)
(-0.0164811 0.0261075 1.01887)
(-0.0188075 0.0217864 0.980958)
(0.0247824 0.0286266 1.14579)
(0.0215448 0.03386 1.1867)
(0.0166732 0.0384752 1.21889)
(0.0105777 0.0418436 1.24115)
(0.00362589 0.043632 1.25253)
(-0.00362598 0.043632 1.25253)
(-0.0105778 0.0418436 1.24115)
(-0.0166733 0.0384752 1.21889)
(-0.0215449 0.03386 1.1867)
(-0.0247825 0.0286265 1.14579)
(0.0298813 0.0343864 1.29102)
(0.0257526 0.0400805 1.33325)
(0.0198081 0.0450369 1.36619)
(0.0125075 0.048625 1.38888)
(0.00427748 0.0505198 1.40043)
(-0.00427759 0.0505198 1.40043)
(-0.0125077 0.048625 1.38888)
(-0.0198082 0.0450369 1.36619)
(-0.0257527 0.0400805 1.33325)
(-0.0298814 0.0343864 1.29102)
(0.0336494 0.0385333 1.41718)
(0.02873 0.0441668 1.45936)
(0.0219508 0.0489916 1.49196)
(0.0137907 0.0524523 1.51429)
(0.00470437 0.0542692 1.52563)
(-0.0047045 0.0542692 1.52563)
(-0.0137908 0.0524523 1.51429)
(-0.021951 0.0489916 1.49196)
(-0.0287301 0.0441668 1.45936)
(-0.0336495 0.0385333 1.41718)
(0.0358412 0.04076 1.52484)
(0.0302955 0.0458201 1.56603)
(0.022969 0.050031 1.5975)
(0.014346 0.0530215 1.61888)
(0.00487927 0.0545803 1.62967)
(-0.00487941 0.0545803 1.62967)
(-0.0143461 0.0530215 1.61888)
(-0.0229692 0.050031 1.5975)
(-0.0302956 0.0458201 1.56603)
(-0.0358413 0.04076 1.52484)
(0.0364274 0.041374 1.61439)
(0.0304146 0.0449508 1.65472)
(0.0228023 0.0480451 1.68438)
(0.0141367 0.050211 1.70425)
(0.00479031 0.0513289 1.71421)
(-0.00479047 0.0513289 1.71421)
(-0.0141369 0.050211 1.70425)
(-0.0228025 0.0480451 1.68438)
(-0.0304147 0.0449508 1.65472)
(-0.0364275 0.041374 1.61439)
(7.97383e-05 0.000107587 0.123956)
(5.58618e-05 0.000136475 0.130097)
(3.42711e-05 0.000153218 0.135058)
(2.09759e-05 0.000161502 0.13854)
(6.81808e-06 0.00016547 0.140335)
(-6.82217e-06 0.00016547 0.140335)
(-2.098e-05 0.000161501 0.13854)
(-3.42748e-05 0.000153216 0.135058)
(-5.58652e-05 0.000136473 0.130097)
(-7.97412e-05 0.000107584 0.123956)
(0.0010414 0.00124355 0.359581)
(0.000894656 0.00154239 0.376378)
(0.000684273 0.00179394 0.389928)
(0.000437024 0.00197454 0.399426)
(0.000150018 0.00207112 0.404319)
(-0.000150034 0.00207112 0.404319)
(-0.00043704 0.00197453 0.399426)
(-0.000684288 0.00179394 0.389928)
(-0.000894669 0.00154238 0.376378)
(-0.00104141 0.00124354 0.359581)
(0.0028702 0.00337825 0.579254)
(0.00250685 0.00415537 0.604997)
(0.0019465 0.0048335 0.625689)
(0.00124546 0.0053313 0.640167)
(0.000428555 0.00559832 0.647616)
(-0.000428586 0.00559832 0.647616)
(-0.00124549 0.0053313 0.640167)
(-0.00194653 0.0048335 0.625689)
(-0.00250688 0.00415536 0.604997)
(-0.00287022 0.00337824 0.579254)
(0.00538039 0.00629365 0.782259)
(0.00471241 0.00767284 0.815194)
(0.0036703 0.00888845 0.841533)
(0.00234627 0.00978436 0.859916)
(0.000807278 0.0102644 0.86936)
(-0.000807325 0.0102644 0.86936)
(-0.00234632 0.00978435 0.859916)
(-0.00367034 0.00888845 0.841532)
(-0.00471245 0.00767283 0.815194)
(-0.00538043 0.00629364 0.782259)
(0.00824629 0.00960151 0.968107)
(0.00720623 0.0115852 1.00648)
(0.00560562 0.0133339 1.03698)
(0.00357501 0.0146201 1.05821)
(0.00122877 0.0153074 1.06909)
(-0.00122883 0.0153074 1.06909)
(-0.00357507 0.0146201 1.05821)
(-0.00560568 0.0133339 1.03698)
(-0.00720628 0.0115852 1.00648)
(-0.00824634 0.0096015 0.968107)
(0.011136 0.0129088 1.13653)
(0.00968332 0.0153894 1.17864)
(0.00750619 0.0175645 1.21188)
(0.00477129 0.0191563 1.23493)
(0.00163732 0.0200035 1.24673)
(-0.0016374 0.0200035 1.24673)
(-0.00477137 0.0191563 1.23493)
(-0.00750626 0.0175645 1.21188)
(-0.00968339 0.0153894 1.17864)
(-0.011136 0.0129088 1.13653)
(0.0137429 0.0158561 1.28742)
(0.0118691 0.0186398 1.33168)
(0.00915514 0.0210569 1.36634)
(0.00579599 0.0228138 1.3903)
(0.00198497 0.0237445 1.40253)
(-0.00198507 0.0237445 1.40253)
(-0.00579608 0.0228138 1.3903)
(-0.00915523 0.0210569 1.36634)
(-0.0118692 0.0186398 1.33168)
(-0.0137429 0.0158561 1.28742)
(0.015808 0.0181382 1.42077)
(0.013542 0.0209755 1.46575)
(0.0103828 0.0234053 1.5007)
(0.00654242 0.025156 1.52476)
(0.00223526 0.0260781 1.537)
(-0.00223537 0.0260781 1.537)
(-0.00654253 0.025156 1.52476)
(-0.0103829 0.0234053 1.5007)
(-0.0135421 0.0209755 1.46575)
(-0.015808 0.0181382 1.42077)
(0.0171603 0.0195417 1.53649)
(0.0145637 0.0221679 1.58115)
(0.0110838 0.0243574 1.61551)
(0.00694395 0.0259185 1.63896)
(0.00236545 0.0267345 1.65083)
(-0.00236558 0.0267345 1.65083)
(-0.00694408 0.0259185 1.63896)
(-0.0110839 0.0243574 1.61551)
(-0.0145639 0.0221679 1.58115)
(-0.0171604 0.0195417 1.53648)
(0.017735 0.0201661 1.63426)
(0.0148666 0.0221052 1.67872)
(0.0111892 0.023768 1.71163)
(0.00695765 0.0249353 1.73378)
(0.00236118 0.0255391 1.74491)
(-0.00236131 0.0255391 1.74491)
(-0.00695778 0.0249354 1.73378)
(-0.0111893 0.0237681 1.71163)
(-0.0148667 0.0221052 1.67872)
(-0.0177351 0.0201661 1.63426)
(1.23187e-05 1.51524e-05 0.122455)
(8.39888e-06 2.0699e-05 0.128528)
(4.72449e-06 2.43435e-05 0.133431)
(3.48038e-06 2.64353e-05 0.136874)
(1.16948e-06 2.76507e-05 0.138648)
(-1.17257e-06 2.76504e-05 0.138648)
(-3.48338e-06 2.64347e-05 0.136874)
(-4.72737e-06 2.43424e-05 0.133431)
(-8.40167e-06 2.06974e-05 0.128528)
(-1.2321e-05 1.51506e-05 0.122455)
(0.000362509 0.000423578 0.35534)
(0.000316513 0.000528715 0.371966)
(0.000245181 0.00062044 0.385371)
(0.000158286 0.000688226 0.394771)
(5.45938e-05 0.000725064 0.399614)
(-5.46064e-05 0.000725063 0.399614)
(-0.000158299 0.000688224 0.394771)
(-0.000245193 0.000620437 0.385371)
(-0.000316524 0.00052871 0.371966)
(-0.000362518 0.000423572 0.35534)
(0.00108244 0.00125941 0.572916)
(0.000954819 0.00155772 0.598472)
(0.000747466 0.00182309 0.619011)
(0.000481226 0.00202131 0.63339)
(0.000166066 0.00212862 0.64079)
(-0.00016609 0.00212862 0.64079)
(-0.00048125 0.00202131 0.63339)
(-0.000747489 0.00182309 0.619011)
(-0.00095484 0.00155771 0.598471)
(-0.00108246 0.0012594 0.572916)
(0.00212237 0.00246285 0.774793)
(0.00187416 0.00301958 0.807647)
(0.0014698 0.00351715 0.833935)
(0.000944316 0.00388889 0.852299)
(0.000325698 0.00408957 0.861738)
(-0.000325736 0.00408957 0.861738)
(-0.000944353 0.00388889 0.852299)
(-0.00146983 0.00351714 0.833935)
(-0.00187419 0.00301957 0.807647)
(-0.0021224 0.00246285 0.774793)
(0.00336109 0.00388857 0.960655)
(0.00296022 0.00472007 0.999182)
(0.00231798 0.00546205 1.02984)
(0.00148536 0.0060145 1.0512)
(0.000511726 0.00631173 1.06216)
(-0.000511779 0.00631173 1.06216)
(-0.00148541 0.0060145 1.0512)
(-0.00231802 0.00546204 1.02984)
(-0.00296026 0.00472007 0.999182)
(-0.00336112 0.00388856 0.960655)
(0.00466103 0.00537319 1.13025)
(0.00408518 0.00644616 1.17285)
(0.00318779 0.00739801 1.20653)
(0.00203596 0.00810284 1.22994)
(0.000700307 0.0084805 1.24193)
(-0.000700374 0.0084805 1.24193)
(-0.00203603 0.00810284 1.22994)
(-0.00318785 0.00739801 1.20653)
(-0.00408524 0.00644615 1.17285)
(-0.00466108 0.00537318 1.13025)
(0.00588346 0.0067536 1.28339)
(0.00512275 0.00799106 1.32852)
(0.00397801 0.00907838 1.36396)
(0.00253048 0.00987774 1.38851)
(0.000868671 0.0103039 1.40106)
(-0.000868752 0.0103039 1.40106)
(-0.00253056 0.00987774 1.38851)
(-0.00397809 0.00907838 1.36396)
(-0.00512282 0.00799106 1.32852)
(-0.00588352 0.00675359 1.28339)
(0.00690164 0.00788022 1.41983)
(0.00596167 0.00917321 1.46608)
(0.00460161 0.010294 1.50215)
(0.00291324 0.0111102 1.52703)
(0.000997638 0.0115427 1.53971)
(-0.000997731 0.0115427 1.53971)
(-0.00291333 0.0111102 1.52703)
(-0.00460169 0.010294 1.50215)
(-0.00596175 0.00917321 1.46608)
(-0.00690171 0.00788022 1.41983)
(0.00762369 0.00863987 1.53922)
(0.00652342 0.00986591 1.58554)
(0.00499657 0.0108999 1.6213)
(0.00314428 0.0116436 1.64578)
(0.00107342 0.0120344 1.65819)
(-0.00107353 0.0120344 1.65819)
(-0.00314438 0.0116436 1.64578)
(-0.00499667 0.0108999 1.6213)
(-0.00652351 0.00986591 1.58554)
(-0.00762377 0.00863988 1.53921)
(0.00800281 0.00906525 1.6409)
(0.0067565 0.0100019 1.68739)
(0.00511491 0.0108037 1.72194)
(0.00319318 0.0113699 1.74525)
(0.00108574 0.0116639 1.75698)
(-0.00108585 0.0116639 1.75698)
(-0.00319329 0.0113699 1.74525)
(-0.00511501 0.0108037 1.72194)
(-0.0067566 0.0100019 1.68739)
(-0.00800289 0.00906526 1.6409)
(7.79301e-06 1.2383e-05 0.122057)
(3.24763e-06 1.61501e-05 0.128103)
(6.57e-07 1.72726e-05 0.132979)
(1.68596e-07 1.73035e-05 0.136401)
(-2.32522e-08 1.72176e-05 0.138166)
(2.10518e-08 1.72174e-05 0.138166)
(-1.70753e-07 1.7303e-05 0.136401)
(-6.59071e-07 1.72718e-05 0.132979)
(-3.24972e-06 1.61489e-05 0.128103)
(-7.79473e-06 1.23816e-05 0.122057)
(0.000139619 0.000169626 0.354039)
(0.000115773 0.000212078 0.370587)
(8.67893e-05 0.000245517 0.383918)
(5.50725e-05 0.000269067 0.393265)
(1.88355e-05 0.000281595 0.398079)
(-1.88448e-05 0.000281594 0.398079)
(-5.50815e-05 0.000269066 0.393265)
(-8.67979e-05 0.000245515 0.383918)
(-0.000115781 0.000212075 0.370587)
(-0.000139626 0.000169622 0.354039)
(0.000419765 0.00049666 0.570828)
(0.000362546 0.000616176 0.596285)
(0.000280239 0.000718027 0.616733)
(0.000179246 0.000792839 0.631047)
(6.16676e-05 0.000833043 0.638412)
(-6.16859e-05 0.000833042 0.638412)
(-0.000179264 0.000792837 0.631047)
(-0.000280256 0.000718023 0.616733)
(-0.000362562 0.000616171 0.596285)
(-0.000419779 0.000496654 0.570828)
(0.000835267 0.000978093 0.77222)
(0.000730082 0.0012043 0.805006)
(0.000569321 0.00140203 0.831231)
(0.000364824 0.00154878 0.849553)
(0.000125686 0.00162779 0.858972)
(-0.000125715 0.00162779 0.858972)
(-0.000364853 0.00154877 0.849553)
(-0.000569347 0.00140203 0.831231)
(-0.000730107 0.0012043 0.805006)
(-0.000835289 0.000978086 0.772219)
(0.0013457 0.00156558 0.958019)
(0.00117943 0.00191013 0.996567)
(0.000921514 0.00221379 1.02724)
(0.000590141 0.00243942 1.04862)
(0.000203274 0.00256077 1.0596)
(-0.000203315 0.00256077 1.0596)
(-0.000590181 0.00243942 1.04862)
(-0.000921551 0.00221379 1.02724)
(-0.00117947 0.00191012 0.996567)
(-0.00134573 0.00156558 0.958019)
(0.00189874 0.00219715 1.12804)
(0.00166115 0.00265108 1.1708)
(0.00129597 0.00305096 1.20462)
(0.000828157 0.00334716 1.22814)
(0.000284963 0.00350602 1.2402)
(-0.000285015 0.00350602 1.2402)
(-0.000828207 0.00334716 1.22814)
(-0.00129602 0.00305096 1.20462)
(-0.00166119 0.00265108 1.1708)
(-0.00189878 0.00219714 1.12804)
(0.00243629 0.00280443 1.28206)
(0.00212147 0.00333881 1.32753)
(0.00164907 0.00380658 1.36327)
(0.0010503 0.00415104 1.38805)
(0.0003608 0.00433497 1.40072)
(-0.000360863 0.00433497 1.40072)
(-0.00105037 0.00415104 1.38805)
(-0.00164913 0.00380658 1.36327)
(-0.00212153 0.00333881 1.32753)
(-0.00243634 0.00280442 1.28206)
(0.00290105 0.00331962 1.41981)
(0.00250923 0.00388923 1.46659)
(0.00194017 0.00438222 1.50312)
(0.00123033 0.00474203 1.52835)
(0.000421693 0.00493302 1.54121)
(-0.000421766 0.00493303 1.54121)
(-0.00123041 0.00474203 1.52835)
(-0.00194024 0.00438222 1.50312)
(-0.00250929 0.00388923 1.46659)
(-0.00290111 0.00331962 1.41981)
(0.00324786 0.00368678 1.54081)
(0.00278484 0.0042378 1.58786)
(0.00213763 0.00470258 1.62424)
(0.00134764 0.00503761 1.64916)
(0.000460502 0.00521391 1.66182)
(-0.000460583 0.00521391 1.66182)
(-0.00134772 0.00503761 1.64916)
(-0.0021377 0.00470258 1.62424)
(-0.00278491 0.0042378 1.58785)
(-0.00324793 0.00368679 1.54081)
(0.00344987 0.00391336 1.64426)
(0.00291908 0.00434562 1.69168)
(0.00221509 0.00471401 1.72697)
(0.00138544 0.00497462 1.75082)
(0.000471511 0.00511012 1.76283)
(-0.000471599 0.00511012 1.76283)
(-0.00138553 0.00497463 1.75082)
(-0.00221517 0.00471401 1.72697)
(-0.00291916 0.00434562 1.69168)
(-0.00344994 0.00391337 1.64426)
(-4.04613e-07 2.29975e-07 0.121878)
(-1.44259e-06 7.2838e-07 0.127916)
(-1.64032e-06 5.61563e-07 0.132783)
(-1.06555e-06 2.53002e-07 0.136201)
(-3.84982e-07 7.81535e-08 0.137962)
(3.83512e-07 7.8048e-08 0.137962)
(1.0641e-06 2.52685e-07 0.136201)
(1.6389e-06 5.61034e-07 0.132783)
(1.44111e-06 7.27588e-07 0.127916)
(4.03388e-07 2.28983e-07 0.121878)
(3.97787e-05 4.78435e-05 0.353468)
(3.27328e-05 6.07671e-05 0.369987)
(2.45289e-05 7.09917e-05 0.383292)
(1.56732e-05 7.83444e-05 0.392621)
(5.37207e-06 8.23098e-05 0.397426)
(-5.37853e-06 8.23095e-05 0.397426)
(-1.56796e-05 7.83435e-05 0.392621)
(-2.4535e-05 7.09901e-05 0.383292)
(-3.27387e-05 6.07648e-05 0.369987)
(-3.97837e-05 4.78406e-05 0.353468)
(0.000136062 0.000159706 0.569897)
(0.000117868 0.000200231 0.595314)
(9.15521e-05 0.000235097 0.615727)
(5.88494e-05 0.000261103 0.630016)
(2.0291e-05 0.000275196 0.63737)
(-2.03041e-05 0.000275196 0.63737)
(-5.88622e-05 0.000261102 0.630016)
(-9.15644e-05 0.000235095 0.615727)
(-0.00011788 0.000200228 0.595314)
(-0.000136072 0.000159702 0.569897)
(0.000287793 0.000334792 0.771035)
(0.000252833 0.000415883 0.803788)
(0.00019825 0.000487418 0.829985)
(0.00012761 0.000541187 0.84829)
(4.40563e-05 0.000570338 0.8577)
(-4.40773e-05 0.000570338 0.8577)
(-0.000127631 0.000541185 0.84829)
(-0.00019827 0.000487415 0.829985)
(-0.000252851 0.000415879 0.803787)
(-0.00028781 0.000334787 0.771034)
(0.000482371 0.000557916 0.95674)
(0.000425309 0.000686219 0.995285)
(0.000334237 0.00080032 1.02596)
(0.00021499 0.000886077 1.04735)
(7.42104e-05 0.000932494 1.05833)
(-7.42399e-05 0.000932493 1.05833)
(-0.000215019 0.000886076 1.04735)
(-0.000334265 0.000800317 1.02596)
(-0.000425335 0.000686216 0.995285)
(-0.000482394 0.000557911 0.95674)
(0.000700846 0.000806583 1.12686)
(0.000617173 0.000980679 1.16967)
(0.000484396 0.00113543 1.20354)
(0.000310907 0.00125131 1.2271)
(0.000107209 0.00131382 1.23918)
(-0.000107248 0.00131382 1.23918)
(-0.000310944 0.0012513 1.2271)
(-0.000484432 0.00113543 1.20354)
(-0.000617207 0.000980676 1.16967)
(-0.000700875 0.000806579 1.12685)
(0.000920386 0.00105392 1.28118)
(0.000807035 0.00126393 1.32677)
(0.000631163 0.00144945 1.36262)
(0.000403762 0.00158746 1.38749)
(0.000138995 0.00166158 1.40022)
(-0.000139042 0.00166158 1.40022)
(-0.000403808 0.00158746 1.38749)
(-0.000631207 0.00144945 1.36262)
(-0.000807077 0.00126392 1.32677)
(-0.000920423 0.00105392 1.28118)
(0.00111717 0.00127176 1.41942)
(0.000973249 0.00150042 1.46641)
(0.000757094 0.00170015 1.50312)
(0.00048216 0.00184729 1.52849)
(0.0001656 0.00192579 1.54143)
(-0.000165655 0.00192579 1.54143)
(-0.000482214 0.00184729 1.52849)
(-0.000757145 0.00170016 1.50312)
(-0.000973298 0.00150042 1.46641)
(-0.00111722 0.00127176 1.41942)
(0.00127142 0.00143587 1.54104)
(0.0010979 0.00166154 1.58839)
(0.00084758 0.00185345 1.62502)
(0.000536484 0.00199281 1.65015)
(0.00018367 0.00206646 1.6629)
(-0.000183732 0.00206646 1.6629)
(-0.000536545 0.00199281 1.65015)
(-0.000847638 0.00185346 1.62502)
(-0.00109795 0.00166154 1.58839)
(-0.00127147 0.00143587 1.54104)
(0.00136989 0.00154792 1.64522)
(0.00116618 0.00172973 1.69302)
(0.000889513 0.00188421 1.72864)
(0.000558308 0.00199401 1.75272)
(0.000190326 0.00205127 1.76484)
(-0.000190392 0.00205127 1.76484)
(-0.000558373 0.00199402 1.75272)
(-0.000889576 0.00188421 1.72864)
(-0.00116624 0.00172973 1.69302)
(-0.00136995 0.00154793 1.64522)
(3.42066e-08 7.9932e-07 0.121849)
(-8.23806e-07 1.18757e-06 0.127883)
(-1.03313e-06 1.022e-06 0.132748)
(-7.49705e-07 7.35282e-07 0.136163)
(-2.78314e-07 5.52287e-07 0.137923)
(2.77384e-07 5.52222e-07 0.137923)
(7.48781e-07 7.35078e-07 0.136163)
(1.03219e-06 1.02165e-06 0.132748)
(8.22852e-07 1.18702e-06 0.127883)
(-3.50224e-08 7.98669e-07 0.121849)
(1.14674e-05 1.50309e-05 0.353332)
(8.15371e-06 1.934e-05 0.36984)
(5.46519e-06 2.20973e-05 0.383133)
(3.28569e-06 2.3851e-05 0.392453)
(1.08862e-06 2.47423e-05 0.397254)
(-1.09292e-06 2.47421e-05 0.397254)
(-3.28992e-06 2.38504e-05 0.392453)
(-5.46933e-06 2.20963e-05 0.383133)
(-8.15767e-06 1.93384e-05 0.36984)
(-1.14708e-05 1.50289e-05 0.353332)