/*--------------------------------*- C++ -*----------------------------------*\
| =========                 |                                                 |
| \\      /  F ield         | OpenFOAM: The Open Source CFD Toolbox           |
|  \\    /   O peration     | Version:  2106                                  |
|   \\  /    A nd           | Website:  www.openfoam.com                      |
|    \\/     M anipulation  |                                                 |
\*---------------------------------------------------------------------------*/
FoamFile
{
    version     2.0;
    format      ascii;
    arch        "LSB;label=32;scalar=64";
    class       volVectorField;
    location    "0.61";
    object      U;
}
// * * * * * * * * * * * * * * * * * * * * * * * * * * * * * * * * * * * * * //

dimensions      [0 1 -1 0 0 0 0];

internalField   nonuniform List<vector> 
10000
(
(0.0630205 0.0742594 0.347677)
(0.0537489 0.0844531 0.362264)
(0.0401405 0.0936709 0.373713)
(0.0249016 0.1001 0.38162)
(0.00843905 0.103424 0.385638)
(-0.00843906 0.103424 0.385638)
(-0.0249017 0.1001 0.38162)
(-0.0401405 0.0936709 0.373713)
(-0.0537489 0.084453 0.362264)
(-0.0630205 0.0742594 0.347677)
(0.173299 0.205601 0.733236)
(0.146286 0.233036 0.753028)
(0.10921 0.257167 0.767775)
(0.0675683 0.27387 0.777745)
(0.0228716 0.282485 0.782729)
(-0.0228717 0.282485 0.782729)
(-0.0675683 0.27387 0.777745)
(-0.10921 0.257167 0.767775)
(-0.146286 0.233036 0.753028)
(-0.173299 0.205601 0.733236)
(0.224204 0.266223 0.930579)
(0.187135 0.298148 0.94652)
(0.138813 0.326025 0.957664)
(0.0854583 0.345095 0.965019)
(0.0288561 0.354867 0.968627)
(-0.0288562 0.354866 0.968627)
(-0.0854584 0.345095 0.965019)
(-0.138813 0.326025 0.957664)
(-0.187135 0.298148 0.94652)
(-0.224204 0.266223 0.930579)
(0.239283 0.283672 1.03041)
(0.197761 0.313741 1.04099)
(0.145787 0.340051 1.0477)
(0.0893352 0.357846 1.052)
(0.0300967 0.366905 1.05404)
(-0.0300968 0.366905 1.05404)
(-0.0893353 0.357846 1.052)
(-0.145787 0.340051 1.0477)
(-0.197761 0.313741 1.04099)
(-0.239283 0.283672 1.03041)
(0.237274 0.280792 1.07911)
(0.194486 0.306941 1.0851)
(0.142617 0.329959 1.08825)
(0.0870407 0.345393 1.09014)
(0.029267 0.353202 1.09099)
(-0.0292671 0.353202 1.09099)
(-0.0870408 0.345393 1.09014)
(-0.142617 0.329959 1.08825)
(-0.194486 0.306941 1.0851)
(-0.237274 0.280792 1.07911)
(0.22613 0.267119 1.10033)
(0.183946 0.288632 1.10292)
(0.134245 0.307723 1.10357)
(0.081628 0.320448 1.10382)
(0.0273985 0.326849 1.10387)
(-0.0273986 0.326849 1.10387)
(-0.0816281 0.320448 1.10382)
(-0.134245 0.307723 1.10357)
(-0.183946 0.288632 1.10292)
(-0.226131 0.267119 1.10033)
(0.209625 0.246992 1.10697)
(0.169224 0.263632 1.10724)
(0.122945 0.278545 1.10631)
(0.0744934 0.288467 1.10554)
(0.0249616 0.293435 1.1051)
(-0.0249618 0.293435 1.1051)
(-0.0744936 0.288467 1.10554)
(-0.122945 0.278545 1.10631)
(-0.169224 0.263632 1.10724)
(-0.209625 0.246992 1.10697)
(0.190109 0.223159 1.10625)
(0.152283 0.234975 1.10506)
(0.110168 0.245705 1.10324)
(0.0665332 0.252877 1.10191)
(0.0222589 0.256469 1.10122)
(-0.0222591 0.256469 1.10122)
(-0.0665334 0.252877 1.10191)
(-0.110168 0.245705 1.10324)
(-0.152283 0.234975 1.10506)
(-0.190109 0.223159 1.10625)
(0.16913 0.197428 1.10222)
(0.134508 0.204612 1.10013)
(0.0969125 0.21129 1.09789)
(0.0583444 0.215884 1.09632)
(0.0194894 0.218205 1.09553)
(-0.0194897 0.218205 1.09553)
(-0.0583447 0.215884 1.09632)
(-0.0969127 0.21129 1.09789)
(-0.134508 0.204612 1.10013)
(-0.16913 0.197428 1.10222)
(0.14786 0.171457 1.09711)
(0.11711 0.172522 1.09455)
(0.0837925 0.175788 1.09217)
(0.0502596 0.178169 1.09056)
(0.016759 0.179392 1.08975)
(-0.0167592 0.179392 1.08975)
(-0.0502598 0.178169 1.09056)
(-0.0837928 0.175788 1.09217)
(-0.11711 0.172522 1.09455)
(-0.14786 0.171457 1.09711)
(0.0112763 0.0144046 0.268613)
(0.00947342 0.0177191 0.280971)
(0.00715321 0.0203816 0.291091)
(0.0045281 0.0222068 0.298136)
(0.00154928 0.0231578 0.301742)
(-0.0015493 0.0231578 0.301742)
(-0.00452812 0.0222068 0.298136)
(-0.00715323 0.0203816 0.291091)
(-0.00947344 0.0177191 0.280971)
(-0.0112763 0.0144046 0.268613)
(0.0547801 0.0662837 0.634458)
(0.0470374 0.0797464 0.656576)
(0.0359981 0.0912816 0.674313)
(0.0227577 0.0994546 0.686511)
(0.00778778 0.103745 0.692702)
(-0.00778784 0.103745 0.692702)
(-0.0227577 0.0994546 0.686511)
(-0.0359982 0.0912816 0.674313)
(-0.0470375 0.0797464 0.656576)
(-0.0547802 0.0662837 0.634458)
(0.0983985 0.117535 0.883346)
(0.0839466 0.139001 0.907352)
(0.0639057 0.157422 0.926181)
(0.0401582 0.170422 0.938973)
(0.0137015 0.177211 0.945415)
(-0.0137016 0.177211 0.945415)
(-0.0401583 0.170422 0.938973)
(-0.0639058 0.157422 0.926181)
(-0.0839467 0.139001 0.907352)
(-0.0983986 0.117535 0.883346)
(0.134652 0.159657 1.05238)
(0.113898 0.18593 1.07454)
(0.086148 0.208368 1.0915)
(0.0538277 0.224088 1.10288)
(0.0183131 0.232252 1.10856)
(-0.0183133 0.232252 1.10856)
(-0.0538278 0.224088 1.10288)
(-0.0861482 0.208367 1.0915)
(-0.113899 0.18593 1.07454)
(-0.134653 0.159656 1.05238)
(0.160571 0.189307 1.16623)
(0.134657 0.217306 1.18496)
(0.101209 0.241057 1.19892)
(0.0629117 0.257577 1.20816)
(0.0213485 0.266108 1.21274)
(-0.0213487 0.266108 1.21274)
(-0.0629119 0.257577 1.20816)
(-0.101209 0.241057 1.19892)
(-0.134657 0.217306 1.18496)
(-0.160571 0.189307 1.16623)
(0.17621 0.206672 1.24174)
(0.14652 0.233897 1.25663)
(0.109459 0.256789 1.26739)
(0.0677141 0.272604 1.27442)
(0.0229233 0.280728 1.27786)
(-0.0229236 0.280728 1.27786)
(-0.0677143 0.272604 1.27442)
(-0.109459 0.256789 1.26739)
(-0.14652 0.233897 1.25663)
(-0.17621 0.206672 1.24174)
(0.182648 0.21312 1.29082)
(0.150572 0.237663 1.30208)
(0.111825 0.258057 1.30993)
(0.0688648 0.27206 1.31497)
(0.0232604 0.27922 1.31742)
(-0.0232607 0.27922 1.31742)
(-0.0688651 0.27206 1.31497)
(-0.111825 0.258056 1.30993)
(-0.150572 0.237663 1.30208)
(-0.182648 0.21312 1.29082)
(0.181244 0.210303 1.3219)
(0.148118 0.230783 1.33002)
(0.109377 0.247524 1.33546)
(0.0670695 0.258965 1.33888)
(0.0226057 0.264795 1.34051)
(-0.0226061 0.264795 1.34051)
(-0.0670699 0.258965 1.33888)
(-0.109377 0.247524 1.33546)
(-0.148118 0.230783 1.33002)
(-0.181244 0.210303 1.3219)
(0.173474 0.199916 1.34087)
(0.140592 0.215405 1.34646)
(0.103231 0.227707 1.35004)
(0.0630301 0.236131 1.35221)
(0.0211991 0.240421 1.35323)
(-0.0211995 0.240421 1.35323)
(-0.0630305 0.236131 1.35221)
(-0.103232 0.227706 1.35004)
(-0.140592 0.215405 1.34646)
(-0.173474 0.199916 1.34087)
(0.160921 0.184783 1.35189)
(0.129554 0.19269 1.35561)
(0.0943484 0.200214 1.35779)
(0.0573169 0.205403 1.35904)
(0.0192303 0.208042 1.35961)
(-0.0192308 0.208042 1.35961)
(-0.0573173 0.205403 1.35904)
(-0.0943489 0.200214 1.35779)
(-0.129555 0.19269 1.35561)
(-0.160921 0.184783 1.35189)
(0.0011273 0.00125871 0.159022)
(0.0011389 0.00160753 0.167394)
(0.00088788 0.00201801 0.174384)
(0.000594316 0.0023221 0.179333)
(0.000207093 0.0024906 0.181894)
(-0.000207116 0.0024906 0.181894)
(-0.000594339 0.00232209 0.179333)
(-0.000887903 0.002018 0.174384)
(-0.00113892 0.00160752 0.167394)
(-0.00112732 0.0012587 0.159022)
(0.0181081 0.0210123 0.445467)
(0.0162849 0.0256343 0.465841)
(0.0127451 0.0299844 0.482572)
(0.00818544 0.0331972 0.494315)
(0.0028205 0.0349231 0.500359)
(-0.00282057 0.0349231 0.500359)
(-0.00818552 0.0331972 0.494315)
(-0.0127452 0.0299843 0.482572)
(-0.0162849 0.0256343 0.465841)
(-0.0181082 0.0210123 0.445467)
(0.0412586 0.0480252 0.691068)
(0.0364385 0.057695 0.718869)
(0.0283075 0.0665155 0.741334)
(0.0180315 0.0729648 0.756969)
(0.00619089 0.0763992 0.764976)
(-0.00619102 0.0763991 0.764976)
(-0.0180316 0.0729648 0.756969)
(-0.0283076 0.0665155 0.741334)
(-0.0364386 0.0576949 0.718869)
(-0.0412587 0.0480251 0.691068)
(0.0662145 0.0771363 0.895276)
(0.0577106 0.0913653 0.926688)
(0.0445008 0.104096 0.951647)
(0.0281645 0.113305 0.968871)
(0.00964057 0.118174 0.977647)
(-0.00964075 0.118174 0.977647)
(-0.0281647 0.113305 0.968871)
(-0.044501 0.104096 0.951647)
(-0.0577107 0.0913652 0.926688)
(-0.0662146 0.0771362 0.895276)
(0.0884824 0.102961 1.06154)
(0.0762411 0.120269 1.09374)
(0.0583713 0.135526 1.11889)
(0.0367349 0.146456 1.1361)
(0.0125399 0.152197 1.14483)
(-0.0125401 0.152197 1.14483)
(-0.0367352 0.146456 1.1361)
(-0.0583716 0.135526 1.11889)
(-0.0762413 0.120269 1.09374)
(-0.0884826 0.102961 1.06154)
(0.105815 0.122813 1.1948)
(0.0902174 0.14144 1.22589)
(0.0685977 0.157634 1.24975)
(0.0429453 0.169132 1.26594)
(0.0146226 0.175136 1.2741)
(-0.0146229 0.175135 1.2741)
(-0.0429456 0.169132 1.26594)
(-0.068598 0.157634 1.24975)
(-0.0902177 0.14144 1.22589)
(-0.105816 0.122813 1.1948)
(0.117369 0.135733 1.30024)
(0.0990494 0.153987 1.32905)
(0.0748065 0.16962 1.35079)
(0.0465984 0.18063 1.36542)
(0.0158275 0.186347 1.37277)
(-0.0158279 0.186347 1.37277)
(-0.0465988 0.18063 1.36542)
(-0.0748068 0.16962 1.35079)
(-0.0990497 0.153987 1.32905)
(-0.117369 0.135733 1.30024)
(0.123029 0.141622 1.3827)
(0.10278 0.158025 1.40862)
(0.0771077 0.171824 1.42789)
(0.047798 0.181471 1.44076)
(0.0161958 0.186455 1.44718)
(-0.0161962 0.186455 1.44718)
(-0.0477984 0.181471 1.44076)
(-0.0771081 0.171824 1.42789)
(-0.10278 0.158025 1.40862)
(-0.123029 0.141622 1.3827)
(0.123205 0.140931 1.44633)
(0.101911 0.154306 1.46925)
(0.0759256 0.165231 1.48604)
(0.0468231 0.172836 1.49713)
(0.0158249 0.176749 1.50263)
(-0.0158253 0.176749 1.50263)
(-0.0468235 0.172836 1.49713)
(-0.075926 0.165231 1.48604)
(-0.101912 0.154306 1.46925)
(-0.123206 0.140931 1.44633)
(0.118728 0.135482 1.49455)
(0.0972511 0.143503 1.51498)
(0.0717406 0.150762 1.52938)
(0.0439681 0.155789 1.53876)
(0.0148148 0.158362 1.54337)
(-0.0148153 0.158362 1.54337)
(-0.0439686 0.155789 1.53876)
(-0.0717411 0.150762 1.52938)
(-0.0972515 0.143503 1.51498)
(-0.118728 0.135482 1.49455)
(0.000716296 0.00094106 0.139231)
(0.00055965 0.00117999 0.146105)
(0.000383128 0.00134934 0.151701)
(0.0002375 0.0014495 0.155629)
(7.95124e-05 0.00149961 0.157656)
(-7.95327e-05 0.00149961 0.157656)
(-0.00023752 0.0014495 0.155629)
(-0.000383148 0.00134933 0.151701)
(-0.00055967 0.00117998 0.146105)
(-0.000716314 0.000941045 0.139231)
(0.0070573 0.0084398 0.399158)
(0.00612743 0.0104028 0.41739)
(0.00471138 0.0121011 0.432149)
(0.00300559 0.0133201 0.442478)
(0.00103217 0.0139686 0.447794)
(-0.00103224 0.0139686 0.447794)
(-0.00300565 0.0133201 0.442478)
(-0.00471145 0.0121011 0.432149)
(-0.00612749 0.0104028 0.41739)
(-0.00705735 0.00843976 0.399158)
(0.0172983 0.0204272 0.634356)
(0.0150884 0.0248703 0.661254)
(0.0116761 0.0287693 0.682857)
(0.00743813 0.0315994 0.697913)
(0.00255429 0.0331048 0.70564)
(-0.00255441 0.0331048 0.70564)
(-0.00743825 0.0315994 0.697913)
(-0.0116762 0.0287692 0.682857)
(-0.0150885 0.0248703 0.661254)
(-0.0172984 0.0204271 0.634356)
(0.0296639 0.0348307 0.842871)
(0.0257896 0.041898 0.875708)
(0.0199311 0.048099 0.901832)
(0.0126564 0.0525956 0.919947)
(0.00434016 0.05498 0.929215)
(-0.00434032 0.05498 0.929215)
(-0.0126566 0.0525956 0.919947)
(-0.0199312 0.048099 0.901832)
(-0.0257897 0.041898 0.875707)
(-0.029664 0.0348306 0.84287)
(0.0420972 0.0492089 1.02464)
(0.0363725 0.0584445 1.06096)
(0.0279965 0.0665017 1.08954)
(0.0177074 0.072315 1.10926)
(0.00606067 0.0753844 1.11931)
(-0.00606089 0.0753844 1.11931)
(-0.0177077 0.072315 1.10926)
(-0.0279967 0.0665017 1.08954)
(-0.0363727 0.0584445 1.06096)
(-0.0420974 0.0492089 1.02464)
(0.0531063 0.0618032 1.18085)
(0.0455351 0.072405 1.21858)
(0.0348636 0.0815674 1.24795)
(0.021954 0.0881341 1.26809)
(0.00749797 0.0915846 1.27832)
(-0.00749824 0.0915846 1.27832)
(-0.0219543 0.0881341 1.26809)
(-0.0348638 0.0815673 1.24795)
(-0.0455353 0.0724049 1.21858)
(-0.0531065 0.0618031 1.18085)
(0.0617084 0.0714769 1.31331)
(0.0524584 0.0824898 1.35084)
(0.0399232 0.0918863 1.3797)
(0.0250234 0.0985706 1.39939)
(0.00852657 0.102065 1.40936)
(-0.00852689 0.102065 1.40936)
(-0.0250237 0.0985706 1.39939)
(-0.0399235 0.0918863 1.3797)
(-0.0524587 0.0824898 1.35084)
(-0.0617087 0.0714768 1.31331)
(0.0673175 0.0775545 1.42413)
(0.0567005 0.0880058 1.46024)
(0.042874 0.0967765 1.48773)
(0.0267425 0.102965 1.50637)
(0.00909021 0.106183 1.51577)
(-0.00909059 0.106183 1.51577)
(-0.0267429 0.102965 1.50637)
(-0.0428743 0.0967765 1.48773)
(-0.0567008 0.0880057 1.46024)
(-0.0673178 0.0775545 1.42413)
(0.0697443 0.0797801 1.51531)
(0.0581841 0.0887936 1.54936)
(0.0436831 0.0961455 1.57495)
(0.0271003 0.101296 1.59215)
(0.00918673 0.10396 1.60078)
(-0.00918715 0.10396 1.60078)
(-0.0271007 0.101296 1.59215)
(-0.0436835 0.0961455 1.57495)
(-0.0581844 0.0887935 1.54936)
(-0.0697446 0.07978 1.51531)
(0.0691759 0.0789447 1.58863)
(0.0571064 0.0849239 1.62087)
(0.0424385 0.0901218 1.64421)
(0.0261534 0.0937291 1.65968)
(0.00883641 0.0955804 1.66738)
(-0.00883685 0.0955804 1.66738)
(-0.0261538 0.0937291 1.65968)
(-0.0424389 0.0901218 1.64421)
(-0.0571068 0.0849239 1.62087)
(-0.0691762 0.0789447 1.58863)
(0.000129702 0.000141687 0.1283)
(0.000120264 0.000185854 0.134708)
(8.88375e-05 0.000231218 0.139917)
(6.07611e-05 0.000263016 0.143579)
(2.09803e-05 0.000281037 0.145469)
(-2.09971e-05 0.000281036 0.145469)
(-6.07779e-05 0.000263012 0.143579)
(-8.88541e-05 0.000231212 0.139917)
(-0.000120281 0.000185844 0.134708)
(-0.000129717 0.000141675 0.1283)
(0.00250298 0.00289509 0.371965)
(0.00223885 0.00358927 0.389383)
(0.00175354 0.00422887 0.403493)
(0.00113325 0.00470471 0.413392)
(0.000391288 0.00496299 0.418494)
(-0.000391343 0.00496299 0.418494)
(-0.00113331 0.0047047 0.413392)
(-0.00175359 0.00422885 0.403493)
(-0.0022389 0.00358925 0.389383)
(-0.00250303 0.00289506 0.371965)
(0.0068172 0.0079088 0.597718)
(0.00605646 0.00969527 0.624133)
(0.00474686 0.0113179 0.645414)
(0.0030503 0.0125249 0.660304)
(0.00105163 0.0131754 0.667963)
(-0.00105172 0.0131754 0.667963)
(-0.00305039 0.0125249 0.660304)
(-0.00474695 0.0113178 0.645414)
(-0.00605655 0.00969523 0.624133)
(-0.00681728 0.00790875 0.597718)
(0.0125078 0.0145134 0.804009)
(0.0110388 0.0175969 0.837314)
(0.00862654 0.0203713 0.863961)
(0.00551971 0.0224246 0.882538)
(0.00189967 0.0235257 0.892074)
(-0.00189981 0.0235257 0.892074)
(-0.00551985 0.0224246 0.882538)
(-0.00862667 0.0203713 0.863961)
(-0.0110389 0.0175969 0.837314)
(-0.0125079 0.0145133 0.804008)
(0.0187 0.0216638 0.990073)
(0.0163839 0.0259566 1.02821)
(0.012746 0.0297829 1.05848)
(0.00812106 0.0325959 1.07949)
(0.0027895 0.0340968 1.09025)
(-0.00278969 0.0340968 1.09025)
(-0.00812125 0.0325959 1.07949)
(-0.0127462 0.0297829 1.05848)
(-0.016384 0.0259565 1.02821)
(-0.0187001 0.0216637 0.990073)
(0.0246261 0.0284489 1.15579)
(0.021404 0.0336426 1.19685)
(0.016561 0.0382223 1.22915)
(0.0105049 0.0415637 1.25147)
(0.00360062 0.0433375 1.26288)
(-0.00360085 0.0433375 1.26288)
(-0.0105052 0.0415637 1.25147)
(-0.0165612 0.0382222 1.22915)
(-0.0214042 0.0336426 1.19685)
(-0.0246262 0.0284488 1.15579)
(0.0296739 0.0341515 1.30148)
(0.0255671 0.0397963 1.34377)
(0.019661 0.0447088 1.37673)
(0.0124126 0.0482639 1.39941)
(0.00424459 0.0501409 1.41096)
(-0.00424487 0.0501409 1.41096)
(-0.0124129 0.0482639 1.39941)
(-0.0196613 0.0447088 1.37673)
(-0.0255673 0.0397963 1.34377)
(-0.0296741 0.0341514 1.30148)
(0.033394 0.0382453 1.42773)
(0.0285037 0.0438236 1.46985)
(0.0217729 0.0485998 1.50237)
(0.0136765 0.0520246 1.52463)
(0.00466494 0.0538222 1.53593)
(-0.00466526 0.0538222 1.53593)
(-0.0136768 0.0520245 1.52463)
(-0.0217732 0.0485998 1.50237)
(-0.028504 0.0438235 1.46985)
(-0.0333942 0.0382452 1.42773)
(0.0355462 0.0404295 1.53518)
(0.0300375 0.0454335 1.57618)
(0.0227682 0.0495966 1.60747)
(0.0142182 0.0525523 1.62872)
(0.00483534 0.0540928 1.63944)
(-0.00483568 0.0540928 1.63944)
(-0.0142186 0.0525523 1.62872)
(-0.0227686 0.0495966 1.60747)
(-0.0300378 0.0454335 1.57618)
(-0.0355465 0.0404295 1.53518)
(0.036106 0.0410112 1.62428)
(0.0301389 0.044542 1.66431)
(0.0225911 0.0475973 1.69372)
(0.0140037 0.0497357 1.7134)
(0.00474482 0.0508392 1.72325)
(-0.00474518 0.0508392 1.72325)
(-0.014004 0.0497357 1.7134)
(-0.0225914 0.0475973 1.69372)
(-0.0301392 0.044542 1.66431)
(-0.0361062 0.0410112 1.62428)
(7.91018e-05 0.000106905 0.125367)
(5.52479e-05 0.000135636 0.131578)
(3.37562e-05 0.000152229 0.136595)
(2.05835e-05 0.000160382 0.140116)
(6.67344e-06 0.000164264 0.141932)
(-6.68665e-06 0.000164263 0.141932)
(-2.05968e-05 0.000160379 0.140116)
(-3.37691e-05 0.000152224 0.136595)
(-5.52607e-05 0.000135629 0.131578)
(-7.91134e-05 0.000106895 0.125367)
(0.00102859 0.00122892 0.363562)
(0.000883039 0.00152436 0.380539)
(0.000674979 0.00177282 0.394231)
(0.000430891 0.00195104 0.403829)
(0.000147873 0.00204631 0.408773)
(-0.000147916 0.00204631 0.408773)
(-0.000430935 0.00195104 0.403829)
(-0.000675021 0.00177281 0.394231)
(-0.000883079 0.00152434 0.380539)
(-0.00102863 0.0012289 0.363562)
(0.00283411 0.00333692 0.585444)
(0.00247427 0.00410452 0.611433)
(0.00192051 0.00477399 0.632318)
(0.00122851 0.00526521 0.646928)
(0.00042266 0.00552862 0.654444)
(-0.000422736 0.00552862 0.654444)
(-0.00122859 0.0052652 0.646928)
(-0.00192059 0.00477397 0.632318)
(-0.00247434 0.00410449 0.611433)
(-0.00283417 0.00333689 0.585444)
(0.00531091 0.00621411 0.790238)
(0.00464988 0.00757531 0.823434)
(0.00362055 0.00877463 0.849973)
(0.00231399 0.00965817 0.868491)
(0.000796068 0.0101315 0.878002)
(-0.000796179 0.0101315 0.878002)
(-0.0023141 0.00965816 0.868491)
(-0.00362065 0.0087746 0.849973)
(-0.00464998 0.00757527 0.823434)
(-0.005311 0.00621406 0.790238)
(0.00813616 0.00947564 0.977416)
(0.00710751 0.0114318 1.01602)
(0.00552729 0.0131557 1.04668)
(0.00352435 0.0144231 1.06801)
(0.00121121 0.0151001 1.07895)
(-0.00121135 0.0151001 1.07895)
(-0.00352449 0.014423 1.06801)
(-0.00552743 0.0131556 1.04668)
(-0.00710764 0.0114317 1.01602)
(-0.00813627 0.00947559 0.977416)
(0.0109815 0.0127327 1.1467)
(0.00954556 0.0151766 1.18897)
(0.00739728 0.0173187 1.2223)
(0.00470109 0.0188857 1.2454)
(0.00161303 0.0197195 1.25723)
(-0.00161321 0.0197195 1.25723)
(-0.00470127 0.0188857 1.2454)
(-0.00739745 0.0173187 1.2223)
(-0.00954572 0.0151766 1.18897)
(-0.0109816 0.0127327 1.1467)
(0.0135443 0.0156306 1.29802)
(0.0116933 0.0183703 1.34231)
(0.00901689 0.0207483 1.37697)
(0.00570725 0.022476 1.40091)
(0.00195433 0.023391 1.41313)
(-0.00195455 0.023391 1.41313)
(-0.00570746 0.022476 1.40091)
(-0.00901709 0.0207483 1.37697)
(-0.0116935 0.0183703 1.34231)
(-0.0135445 0.0156306 1.29802)
(0.0155702 0.0178694 1.43139)
(0.0133332 0.0206588 1.47627)
(0.0102198 0.0230466 1.51111)
(0.00643833 0.0247663 1.53506)
(0.00219943 0.0256719 1.54725)
(-0.00219968 0.0256719 1.54725)
(-0.00643857 0.0247663 1.53506)
(-0.01022 0.0230466 1.51111)
(-0.0133334 0.0206588 1.47627)
(-0.0155704 0.0178694 1.43139)
(0.0168918 0.0192402 1.54679)
(0.0143308 0.021819 1.59122)
(0.0109035 0.0239682 1.62535)
(0.0068297 0.0255 1.64863)
(0.00232627 0.0263005 1.66041)
(-0.00232653 0.0263005 1.6604)
(-0.00682996 0.0255 1.64863)
(-0.0109038 0.0239681 1.62535)
(-0.014331 0.021819 1.59122)
(-0.016892 0.0192402 1.54679)
(0.0174475 0.0198417 1.64399)
(0.0146214 0.0217429 1.68808)
(0.0110022 0.0233734 1.72069)
(0.00684028 0.0245179 1.74261)
(0.00232112 0.0251099 1.75362)
(-0.0023214 0.0251099 1.75362)
(-0.00684055 0.0245179 1.74261)
(-0.0110025 0.0233734 1.72069)
(-0.0146217 0.0217429 1.68808)
(-0.0174477 0.0198417 1.64399)
(1.16963e-05 1.4384e-05 0.123892)
(7.88567e-06 1.97484e-05 0.130037)
(4.33711e-06 2.32649e-05 0.134997)
(3.2069e-06 2.5268e-05 0.13848)
(1.07108e-06 2.64296e-05 0.140276)
(-1.08109e-06 2.64289e-05 0.140276)
(-3.21685e-06 2.52657e-05 0.13848)
(-4.3469e-06 2.32611e-05 0.134997)
(-7.89531e-06 1.97427e-05 0.130037)
(-1.17048e-05 1.43769e-05 0.123892)
(0.000352604 0.000412047 0.359396)
(0.000307714 0.00051449 0.376205)
(0.000238246 0.000603858 0.389756)
(0.000153761 0.00066987 0.399257)
(5.3017e-05 0.000705732 0.404152)
(-5.30498e-05 0.00070573 0.404152)
(-0.000153793 0.000669863 0.399257)
(-0.000238277 0.000603847 0.389756)
(-0.000307744 0.000514474 0.376205)
(-0.000352631 0.000412028 0.359396)
(0.00105478 0.00122741 0.579219)
(0.000930128 0.00151835 0.605024)
(0.000727939 0.00177715 0.62576)
(0.000468562 0.00197041 0.640273)
(0.000161669 0.00207501 0.647741)
(-0.000161726 0.00207501 0.647741)
(-0.000468619 0.0019704 0.640273)
(-0.000727994 0.00177714 0.62576)
(-0.000930181 0.00151833 0.605024)
(-0.00105483 0.00122738 0.579219)
(0.00206945 0.00240184 0.782907)
(0.00182692 0.00294485 0.816026)
(0.00143242 0.00343012 0.842515)
(0.000920152 0.00379259 0.861014)
(0.000317323 0.00398823 0.87052)
(-0.000317406 0.00398823 0.87052)
(-0.000920234 0.00379258 0.861014)
(-0.0014325 0.0034301 0.842514)
(-0.00182699 0.00294482 0.816025)
(-0.00206951 0.00240181 0.782907)
(0.0032777 0.00379277 0.970104)
(0.00288598 0.0046035 1.00886)
(0.00225934 0.00532685 1.03968)
(0.00144754 0.00586531 1.06114)
(0.00049864 0.00615496 1.07216)
(-0.00049875 0.00615496 1.07216)
(-0.00144765 0.0058653 1.06114)
(-0.00225944 0.00532683 1.03968)
(-0.00288608 0.00460347 1.00886)
(-0.00327779 0.00379273 0.970103)
(0.00454476 0.0052401 1.14055)
(0.00398211 0.00628561 1.18329)
(0.00310663 0.00721297 1.21706)
(0.00198379 0.00789947 1.24051)
(0.000682281 0.00826724 1.25252)
(-0.000682417 0.00826724 1.25252)
(-0.00198392 0.00789946 1.24051)
(-0.00310676 0.00721294 1.21706)
(-0.00398223 0.00628558 1.18329)
(-0.00454487 0.00524006 1.14055)
(0.00573494 0.0065843 1.29407)
(0.0049919 0.00778914 1.33922)
(0.00387548 0.00884759 1.37463)
(0.00246482 0.00962552 1.39915)
(0.00084603 0.0100402 1.41169)
(-0.000846192 0.0100402 1.41169)
(-0.00246498 0.00962551 1.39915)
(-0.00387563 0.00884757 1.37463)
(-0.00499204 0.00778911 1.33921)
(-0.00573507 0.00658427 1.29407)
(0.0067247 0.00767955 1.43047)
(0.00580704 0.0089373 1.4766)
(0.00448121 0.0100273 1.51252)
(0.00283653 0.0108209 1.53728)
(0.000971257 0.0112414 1.5499)
(-0.000971441 0.0112414 1.5499)
(-0.00283671 0.0108209 1.53728)
(-0.00448138 0.0100273 1.51252)
(-0.0058072 0.00893728 1.47659)
(-0.00672484 0.00767952 1.43047)
(0.00742489 0.00841599 1.54946)
(0.00635153 0.00960733 1.59551)
(0.00486391 0.0106119 1.63101)
(0.00306033 0.0113344 1.65529)
(0.00104466 0.011714 1.6676)
(-0.00104486 0.011714 1.6676)
(-0.00306053 0.0113344 1.65529)
(-0.0048641 0.0106119 1.63101)
(-0.00635171 0.00960732 1.59551)
(-0.00742504 0.00841597 1.54946)
(0.00779081 0.00882559 1.65049)
(0.00657618 0.00973472 1.69656)
(0.00497761 0.0105131 1.73076)
(0.00310709 0.0110627 1.75381)
(0.00105637 0.0113481 1.76541)
(-0.00105658 0.0113481 1.76541)
(-0.0031073 0.0110627 1.75381)
(-0.0049778 0.0105131 1.73076)
(-0.00657637 0.00973472 1.69656)
(-0.00779098 0.00882558 1.65049)
(7.48404e-06 1.20079e-05 0.123512)
(2.99496e-06 1.56785e-05 0.129631)
(4.67609e-07 1.67345e-05 0.134565)
(3.03794e-08 1.67181e-05 0.138029)
(-7.40304e-08 1.66025e-05 0.139814)
(6.66683e-08 1.6602e-05 0.139814)
(-3.76544e-08 1.67164e-05 0.138029)
(-4.74684e-07 1.67316e-05 0.134565)
(-3.00198e-06 1.56745e-05 0.129631)
(-7.49004e-06 1.20029e-05 0.123512)
(0.00013369 0.000162743 0.358148)
(0.000110509 0.000203556 0.374881)
(8.26437e-05 0.000235563 0.38836)
(5.23649e-05 0.000258031 0.397809)
(1.78908e-05 0.000269963 0.402675)
(-1.79148e-05 0.000269961 0.402675)
(-5.23886e-05 0.000258027 0.397809)
(-8.26667e-05 0.000235555 0.38836)
(-0.000110531 0.000203545 0.374881)
(-0.000133709 0.000162729 0.358148)
(0.000402782 0.000477036 0.57721)
(0.000347398 0.000591983 0.602919)
(0.000268265 0.000689751 0.623565)
(0.000171478 0.000761475 0.638015)
(5.89684e-05 0.000799993 0.645449)
(-5.90105e-05 0.00079999 0.645449)
(-0.000171519 0.000761467 0.638015)
(-0.000268304 0.000689739 0.623565)
(-0.000347436 0.000591965 0.602919)
(-0.000402815 0.000477015 0.57721)
(0.000802351 0.000940163 0.780429)
(0.000700722 0.00115778 0.813481)
(0.000546097 0.00134779 0.839909)
(0.000349804 0.0014887 0.858367)
(0.000120478 0.00156455 0.867853)
(-0.000120538 0.00156455 0.867853)
(-0.000349864 0.00148869 0.858367)
(-0.000546155 0.00134778 0.839909)
(-0.000700776 0.00115776 0.813481)
(-0.000802399 0.000940138 0.780428)
(0.00129344 0.00150555 0.967567)
(0.00113292 0.00183699 1.00634)
(0.000884777 0.0021289 1.03718)
(0.000566444 0.00234567 1.05866)
(0.000195071 0.00246222 1.06969)
(-0.000195151 0.00246222 1.06969)
(-0.000566522 0.00234566 1.05866)
(-0.000884852 0.00212888 1.03718)
(-0.00113299 0.00183697 1.00634)
(-0.0012935 0.00150552 0.967567)
(0.0018255 0.00211331 1.13842)
(0.00159623 0.00254986 1.18132)
(0.00124485 0.0029342 1.21522)
(0.000795281 0.00321876 1.23878)
(0.000273602 0.00337133 1.25086)
(-0.000273701 0.00337133 1.25086)
(-0.000795379 0.00321875 1.23878)
(-0.00124494 0.00293419 1.21522)
(-0.00159631 0.00254984 1.18132)
(-0.00182557 0.00211328 1.13842)
(0.00234239 0.0026974 1.2928)
(0.00203875 0.00321107 1.33828)
(0.00158422 0.00366049 1.37398)
(0.00100877 0.00399129 1.39872)
(0.000346475 0.00416789 1.41137)
(-0.000346593 0.00416789 1.41137)
(-0.00100888 0.00399128 1.39872)
(-0.00158433 0.00366048 1.37398)
(-0.00203885 0.00321105 1.33828)
(-0.00234248 0.00269737 1.2928)
(0.0027889 0.00319244 1.43047)
(0.0024112 0.00373964 1.47711)
(0.00186381 0.00421302 1.51348)
(0.00118167 0.0045584 1.53858)
(0.000404953 0.0047417 1.55137)
(-0.000405086 0.0047417 1.55137)
(-0.0011818 0.0045584 1.53857)
(-0.00186394 0.004213 1.51348)
(-0.00241132 0.00373962 1.47711)
(-0.002789 0.00319242 1.43047)
(0.0031216 0.00354462 1.55102)
(0.00267563 0.00407354 1.59777)
(0.00205329 0.00451957 1.63387)
(0.00129426 0.00484101 1.65858)
(0.000442202 0.00501014 1.67112)
(-0.000442349 0.00501014 1.67112)
(-0.0012944 0.00484101 1.65858)
(-0.00205343 0.00451956 1.63387)
(-0.00267576 0.00407352 1.59777)
(-0.00312171 0.00354461 1.55102)
(0.00331498 0.00376095 1.65376)
(0.00280427 0.00417558 1.70072)
(0.00212761 0.00452899 1.73564)
(0.00133056 0.00477899 1.75921)
(0.000452787 0.00490896 1.77107)
(-0.000452943 0.00490896 1.77107)
(-0.00133072 0.00477899 1.75921)
(-0.00212775 0.00452898 1.73564)
(-0.00280441 0.00417558 1.70072)
(-0.0033151 0.00376094 1.65376)
(-5.64666e-07 1.93736e-08 0.123344)
(-1.55606e-06 4.61507e-07 0.129454)
(-1.71805e-06 2.6502e-07 0.134381)
(-1.12238e-06 -6.1317e-08 0.137839)
(-4.0623e-07 -2.4735e-07 0.139622)
(4.00968e-07 -2.47752e-07 0.139622)
(1.11721e-06 -6.25249e-08 0.137839)
(1.71307e-06 2.63044e-07 0.134381)
(1.55119e-06 4.58691e-07 0.129454)
(5.60592e-07 1.59243e-08 0.123344)
(3.66649e-05 4.41909e-05 0.357605)
(3.00109e-05 5.62345e-05 0.374311)
(2.24029e-05 6.57113e-05 0.387765)
(1.42887e-05 7.25049e-05 0.397197)
(4.88865e-06 7.61627e-05 0.402054)
(-4.90581e-06 7.61615e-05 0.402054)
(-1.43055e-05 7.25014e-05 0.397197)
(-2.24191e-05 6.57058e-05 0.387765)
(-3.00265e-05 5.62267e-05 0.374311)
(-3.66779e-05 4.41812e-05 0.357605)
(0.000126967 0.000149146 0.576323)
(0.000109811 0.000187184 0.601994)
(8.52052e-05 0.000219854 0.622606)
(5.4737e-05 0.000244203 0.637032)
(1.88615e-05 0.000257391 0.644455)
(-1.88915e-05 0.000257389 0.644455)
(-5.47664e-05 0.000244197 0.637032)
(-8.52333e-05 0.000219845 0.622606)
(-0.000109838 0.000187172 0.601994)
(-0.00012699 0.000149132 0.576323)
(0.000269933 0.000314154 0.779298)
(0.000236957 0.000390513 0.812318)
(0.000185713 0.000457822 0.838719)
(0.000119505 0.000508398 0.85716)
(4.12448e-05 0.000535813 0.866638)
(-4.12882e-05 0.00053581 0.866638)
(-0.000119548 0.000508391 0.85716)
(-0.000185754 0.000457811 0.838719)
(-0.000236996 0.000390498 0.812318)
(-0.000269967 0.000314136 0.779298)
(0.000453721 0.000524945 0.966345)
(0.000399857 0.000645963 1.00512)
(0.000314147 0.000753541 1.03595)
(0.00020203 0.000834384 1.05744)
(6.9722e-05 0.000878135 1.06847)
(-6.97789e-05 0.000878132 1.06847)
(-0.000202086 0.000834376 1.05744)
(-0.0003142 0.000753529 1.03595)
(-0.000399907 0.000645946 1.00511)
(-0.000453765 0.000524925 0.966344)
(0.000660349 0.000760172 1.13729)
(0.000581312 0.00092452 1.18024)
(0.000456158 0.00107057 1.21419)
(0.000292743 0.00117992 1.23779)
(0.000100929 0.00123891 1.24988)
(-0.000101 0.00123891 1.24988)
(-0.000292812 0.00117991 1.23779)
(-0.000456224 0.00107056 1.21419)
(-0.000581374 0.000924502 1.18024)
(-0.000660404 0.000760152 1.13729)
(0.00086811 0.000994279 1.29196)
(0.000760993 0.00119259 1.33755)
(0.000595061 0.00136776 1.37336)
(0.000380627 0.00149805 1.39819)
(0.000131013 0.00156801 1.41088)
(-0.000131096 0.00156801 1.41088)
(-0.000380708 0.00149804 1.39819)
(-0.000595139 0.00136774 1.37336)
(-0.000761066 0.00119257 1.33755)
(-0.000868175 0.000994259 1.29196)
(0.00105438 0.00120049 1.43009)
(0.00091835 0.00141641 1.47692)
(0.000714305 0.00160501 1.51347)
(0.000454872 0.00174393 1.5387)
(0.000156209 0.00181804 1.55156)
(-0.000156304 0.00181804 1.55156)
(-0.000454965 0.00174392 1.5387)
(-0.000714394 0.001605 1.51347)
(-0.000918433 0.0014164 1.47692)
(-0.00105445 0.00120048 1.43009)
(0.00120038 0.00135584 1.55124)
(0.00103642 0.00156888 1.59826)
(0.000800066 0.00175007 1.63461)
(0.000506385 0.00188165 1.6595)
(0.000173348 0.00195118 1.67214)
(-0.000173453 0.00195118 1.67214)
(-0.000506487 0.00188164 1.6595)
(-0.000800164 0.00175006 1.63461)
(-0.00103651 0.00156887 1.59826)
(-0.00120046 0.00135582 1.55124)
(0.00129367 0.00146179 1.65466)
(0.00110126 0.00163343 1.70199)
(0.000839997 0.00177929 1.73721)
(0.000527223 0.00188297 1.761)
(0.000179713 0.00193704 1.77297)
(-0.000179825 0.00193704 1.77297)
(-0.000527332 0.00188297 1.761)
(-0.000840102 0.00177928 1.73721)
(-0.00110136 0.00163343 1.70199)
(-0.00129376 0.00146178 1.65466)
(-1.39486e-08 7.29019e-07 0.123319)
(-8.47443e-07 1.09608e-06 0.129427)
(-1.04526e-06 9.24465e-07 0.13435)
(-7.61114e-07 6.35039e-07 0.137806)
(-2.8325e-07 4.49824e-07 0.139588)
(2.79611e-07 4.4954e-07 0.139588)
(7.57553e-07 6.34213e-07 0.137806)
(1.04188e-06 9.23096e-07 0.13435)
(8.44253e-07 1.0942e-06 0.129427)
(1.12497e-08 7.26795e-07 0.123319)
(1.01384e-05 1.3462e-05 0.357483)
(7.01045e-06 1.73835e-05 0.374179)
(4.57723e-06 1.98211e-05 0.387621)
(2.70557e-06 2.13335e-05 0.397045)
(8.85144e-07 2.20918e-05 0.401898)
(-8.96988e-07 2.20909e-05 0.401898)
(-2.71715e-06 2.13311e-05 0.397045)
(-4.58823e-06 1.98172e-05 0.387621)
(-7.02073e-06 1.73782e-05 0.374178)