/*--------------------------------*- C++ -*----------------------------------*\
| =========                 |                                                 |
| \\      /  F ield         | OpenFOAM: The Open Source CFD Toolbox           |
|  \\    /   O peration     | Version:  2106                                  |
|   \\  /    A nd           | Website:  www.openfoam.com                      |
|    \\/     M anipulation  |                                                 |
\*---------------------------------------------------------------------------*/
FoamFile
{
    version     2.0;
    format      ascii;
    arch        "LSB;label=32;scalar=64";
    class       surfaceScalarField;
    location    "0.85";
    object      phi;
}
// * * * * * * * * * * * * * * * * * * * * * * * * * * * * * * * * * * * * * //

dimensions      [0 3 -1 0 0 0 0];

oriented        oriented;

internalField   nonuniform List<scalar> 
29100
(
0.00119026
0.151577
0.0815648
-2.73627e-10
0.00146465
0.156492
0.0896346
0.00125688
0.159937
0.0963757
0.000715803
0.162233
0.101201
-1.41335e-09
0.163384
0.103714
-0.000715806
0.163384
0.103714
-0.00125689
0.162233
0.101201
-0.00146465
0.159937
0.0963757
-0.00119026
0.156492
0.0896346
0.151577
0.0815648
-2.75883e-09
0.002383
0.209872
0.156689
-4.43446e-10
0.00331005
0.214492
0.17032
0.0029523
0.217586
0.181465
0.00170787
0.219517
0.189347
-4.11387e-09
0.220464
0.19342
-0.00170788
0.220464
0.19342
-0.0029523
0.219517
0.189347
-0.00331006
0.217586
0.181465
-0.002383
0.214492
0.17032
0.209872
0.156689
-7.47294e-09
0.00303987
0.221093
0.186141
-6.26034e-10
0.00429964
0.22404
0.201283
0.00385959
0.225961
0.213471
0.00223543
0.227009
0.222014
-6.86979e-09
0.227495
0.226405
-0.00223545
0.227495
0.226405
-0.0038596
0.227009
0.222014
-0.00429966
0.225961
0.213471
-0.00303988
0.22404
0.201283
0.221093
0.186141
-1.16905e-08
0.00347187
0.207765
0.193294
-7.86925e-10
0.00484385
0.209032
0.208574
0.004339
0.209803
0.220719
0.00250863
0.210043
0.229172
-9.73507e-09
0.210115
0.233498
-0.00250865
0.210115
0.233498
-0.00433902
0.210043
0.229172
-0.00484387
0.209803
0.220719
-0.00347189
0.209032
0.208574
0.207765
0.193294
-1.55083e-08
0.00370284
0.182653
0.187882
-9.53445e-10
0.00509631
0.182627
0.202794
0.0045528
0.182526
0.214528
0.0026288
0.182193
0.222646
-1.27872e-08
0.181975
0.226787
-0.00262882
0.181975
0.226787
-0.00455282
0.182193
0.222646
-0.00509634
0.182526
0.214528
-0.00370286
0.182627
0.202794
0.182653
0.187882
-1.90648e-08
0.00378831
0.153093
0.17528
-1.12274e-09
0.00516258
0.15221
0.189671
0.00460245
0.15154
0.200903
0.00265597
0.150871
0.208634
-1.61117e-08
0.15049
0.212567
-0.002656
0.15049
0.212567
-0.00460248
0.150871
0.208634
-0.00516261
0.15154
0.200903
-0.00378834
0.15221
0.189671
0.153093
0.17528
-2.24309e-08
0.00379629
0.123198
0.158643
-1.35871e-09
0.00513719
0.12183
0.172513
0.0045729
0.120844
0.183268
0.00263875
0.12003
0.190635
-1.97141e-08
0.119591
0.194374
-0.00263879
0.119591
0.194374
-0.00457293
0.12003
0.190635
-0.00513723
0.120844
0.183268
-0.00379632
0.12183
0.172513
0.123198
0.158643
-2.56779e-08
0.00376161
0.0951972
0.139818
-1.66726e-09
0.00508285
0.0936053
0.153223
0.00452437
0.0925018
0.163559
0.00261195
0.0916902
0.170608
-2.35791e-08
0.0912702
0.174178
-0.00261199
0.0912702
0.174178
-0.00452442
0.0916902
0.170608
-0.00508289
0.0925018
0.163559
-0.00376164
0.0936053
0.153223
0.0951972
0.139818
-2.87935e-08
0.00372965
0.0702153
0.119867
-2.14135e-09
0.00506449
0.0685652
0.13287
0.00450947
0.0675169
0.142849
0.00260254
0.0668232
0.149624
-2.75031e-08
0.0664798
0.153047
-0.00260259
0.0664798
0.153047
-0.00450952
0.0668232
0.149624
-0.00506453
0.0675169
0.142849
-0.00372968
0.0685652
0.13287
0.0702153
0.119867
-3.16919e-08
0.00395152
0.099396
-2.82452e-09
0.048518
0.00525553
0.112059
0.0472127
0.00462272
0.121725
0.0463837
0.00264782
0.12826
0.0458822
-3.11084e-08
0.131554
0.0456364
-0.00264788
0.131554
0.0456364
-0.00462277
0.12826
0.0458822
-0.00525558
0.121725
0.0463837
-0.00395156
0.112059
0.0472126
0.0993959
-3.40929e-08
0.048518
-0.000242271
0.0368187
0.0449884
-3.9361e-10
-0.000244332
0.0400183
0.0496183
-0.000171723
0.042722
0.0535811
-8.55108e-05
0.0446555
0.0564592
-2.6735e-09
0.0456557
0.0579725
8.55056e-05
0.0456557
0.0579725
0.000171718
0.0446555
0.0564592
0.000244327
0.042722
0.0535811
0.000242266
0.0400183
0.0496183
0.0368187
0.0449884
-4.72034e-09
6.54577e-05
0.0813352
0.112107
-7.48772e-10
0.000255344
0.0871714
0.122977
0.000305038
0.0920248
0.132112
0.000204305
0.0954255
0.138678
-8.46833e-09
0.0971723
0.142107
-0.000204321
0.0971723
0.142107
-0.000305055
0.0954255
0.138678
-0.000255359
0.0920248
0.132112
-6.54718e-05
0.0871714
0.122977
0.0813352
0.112107
-1.36174e-08
0.000619725
0.113087
0.15377
-1.04925e-09
0.00104141
0.11985
0.168183
0.00101891
0.125401
0.180118
0.000622696
0.129215
0.188621
-1.43609e-08
0.131159
0.193041
-0.000622724
0.131159
0.193041
-0.00101893
0.129215
0.188621
-0.00104144
0.125401
0.180118
-0.000619749
0.11985
0.168183
0.113087
0.15377
-2.19368e-08
0.00124396
0.129719
0.175419
-1.31835e-09
0.00189236
0.136163
0.191613
0.0017806
0.141384
0.204848
0.00106344
0.144897
0.214207
-2.04636e-08
0.146671
0.219049
-0.00106348
0.146671
0.219049
-0.00178063
0.144897
0.214207
-0.0018924
0.141384
0.204848
-0.00124399
0.136163
0.191613
0.129719
0.175419
-2.95861e-08
0.00185439
0.132978
0.182768
-1.6217e-09
0.00270105
0.138409
0.199702
0.00249628
0.14274
0.213377
0.00147461
0.145585
0.22298
-2.68149e-08
0.147004
0.227929
-0.00147466
0.147004
0.227929
-0.00249633
0.145585
0.22298
-0.0027011
0.14274
0.213377
-0.00185443
0.138409
0.199702
0.132978
0.182768
-3.66121e-08
0.0024067
0.125919
0.179932
-2.01084e-09
0.00342051
0.130062
0.197004
0.00312852
0.133289
0.210645
0.00183663
0.135349
0.220162
-3.34663e-08
0.13636
0.225048
-0.0018367
0.13636
0.225048
-0.00312858
0.135349
0.220162
-0.00342056
0.133289
0.210645
-0.00240675
0.130062
0.197004
0.125919
0.179932
-4.30054e-08
0.00287759
0.11179
0.169895
-2.58524e-09
0.00403421
0.11464
0.186779
0.00366871
0.116779
0.200144
0.00214648
0.118095
0.209411
-4.02783e-08
0.11873
0.214151
-0.00214656
0.11873
0.214151
-0.00366878
0.118095
0.209411
-0.00403428
0.116779
0.200144
-0.00287765
0.11464
0.186779
0.11179
0.169895
-4.87564e-08
0.0032612
0.093528
0.154819
-3.29701e-09
0.00455189
0.0952143
0.171358
0.00413067
0.0964189
0.18434
0.00241303
0.0971313
0.193289
-4.71078e-08
0.0974684
0.197852
-0.00241312
0.0974684
0.197852
-0.00413075
0.0971313
0.193289
-0.00455197
0.0964189
0.18434
-0.00326127
0.0952143
0.171357
0.093528
0.154819
-5.36698e-08
0.00359361
0.0735478
0.136254
-4.34869e-09
0.00502313
0.074265
0.15239
0.00455246
0.0747793
0.164959
0.00265522
0.0750796
0.173572
-5.33752e-08
0.0752217
0.177949
-0.00265532
0.0752217
0.177949
-0.00455255
0.0750796
0.173572
-0.00502321
0.0747793
0.164959
-0.00359368
0.074265
0.15239
0.0735478
0.136254
-5.74109e-08
0.00402305
0.115298
-5.71436e-09
0.0536224
0.00557315
0.131043
0.053731
0.00501148
0.143198
0.0538678
0.00290672
0.151479
0.0539656
-5.82981e-08
0.155671
0.0540112
-0.00290684
0.155671
0.0540112
-0.00501159
0.151479
0.0539656
-0.00557324
0.143198
0.0538678
-0.00402312
0.131043
0.053731
0.115298
-5.96807e-08
0.0536224
3.96096e-05
0.0100766
0.0348721
-4.27984e-10
3.55539e-05
0.0111189
0.0385035
2.99627e-05
0.0120034
0.0415834
1.66063e-05
0.0126601
0.0438124
-2.96104e-09
0.013006
0.0449831
-1.66122e-05
0.013006
0.0449831
-2.99685e-05
0.0126601
0.0438124
-3.55594e-05
0.0120034
0.0415834
-3.96149e-05
0.0111189
0.0385035
0.0100766
0.0348721
-5.18826e-09
0.000283732
0.0305544
0.0913454
-8.78019e-10
0.000385352
0.0332867
0.100707
0.000344428
0.0355731
0.108584
0.000200919
0.0372221
0.114259
-9.6824e-09
0.0380836
0.117231
-0.000200938
0.0380836
0.117231
-0.000344447
0.0372221
0.114259
-0.00038537
0.0355731
0.108584
-0.000283749
0.0332867
0.100707
0.0305544
0.0913454
-1.53195e-08
0.000606005
0.0516366
0.132082
-1.27291e-09
0.000859926
0.0556727
0.145543
0.000779092
0.0590055
0.156766
0.00045666
0.061356
0.16481
-1.68579e-08
0.0625735
0.169008
-0.000456693
0.0625735
0.169008
-0.000779124
0.061356
0.16481
-0.000859955
0.0590055
0.156766
-0.000606032
0.0556727
0.145543
0.0516367
0.132082
-2.49713e-08
0.000976458
0.0675793
0.1585
-1.63637e-09
0.00140138
0.0721968
0.174664
0.00127999
0.0759637
0.188011
0.000751728
0.0785687
0.197522
-2.43529e-08
0.0799058
0.202469
-0.000751775
0.0799058
0.202469
-0.00128004
0.0785687
0.197522
-0.00140143
0.0759638
0.188011
-0.000976495
0.0721968
0.174664
0.0675793
0.1585
-3.39072e-08
0.00136978
0.0763695
0.172608
-2.08529e-09
0.00196208
0.0809039
0.190402
0.00179659
0.0845541
0.204952
0.00105539
0.0870301
0.21526
-3.20651e-08
0.0882885
0.220602
-0.00105545
0.0882885
0.220602
-0.00179665
0.0870301
0.21526
-0.00196214
0.0845542
0.204952
-0.00136982
0.0809039
0.190402
0.0763695
0.172608
-4.20525e-08
0.00176539
0.0780237
0.176513
-2.64747e-09
0.00251167
0.0820037
0.195158
0.0022988
0.0851528
0.21026
0.00134965
0.087246
0.220895
-3.99544e-08
0.0882982
0.226388
-0.00134973
0.0882982
0.226388
-0.00229887
0.0872461
0.220895
-0.00251173
0.0851528
0.210259
-0.00176545
0.0820037
0.195158
0.0780237
0.176513
-4.93e-08
0.0021398
0.0736225
0.172157
-3.43243e-09
0.00302569
0.076783
0.191113
0.0027665
0.0792262
0.20633
0.00162331
0.0808164
0.216983
-4.7732e-08
0.0816066
0.222466
-0.0016234
0.0816066
0.222466
-0.00276659
0.0808164
0.216983
-0.00302577
0.0792262
0.20633
-0.00213987
0.0767831
0.191113
0.0736225
0.172156
-5.55835e-08
0.00247676
0.0647304
0.161235
-4.45415e-09
0.00349402
0.0669734
0.18015
0.00319303
0.0686638
0.195204
0.00187269
0.0697443
0.205682
-5.51762e-08
0.0702764
0.211055
-0.0018728
0.0702764
0.211055
-0.00319312
0.0697443
0.205682
-0.00349411
0.0686638
0.195204
-0.00247683
0.0669734
0.18015
0.0647304
0.161235
-6.0641e-08
0.00278888
0.0530224
0.145173
-5.93042e-09
0.00393263
0.0543825
0.163837
0.00358814
0.0554015
0.178566
0.00210146
0.0560503
0.188753
-6.15487e-08
0.0563695
0.193957
-0.00210158
0.0563695
0.193957
-0.00358825
0.0560504
0.188753
-0.00393272
0.0554015
0.178566
-0.00278896
0.0543825
0.163837
0.0530225
0.145173
-6.40598e-08
0.0031347
0.125148
-7.70092e-09
0.0400379
0.00438558
0.143478
0.0406961
0.00397873
0.157783
0.0412234
0.00232078
0.16761
0.0415775
-6.59653e-08
0.172609
0.0417525
-0.00232091
0.172609
0.0417525
-0.00397884
0.16761
0.0415775
-0.00438568
0.157783
0.0412234
-0.00313478
0.143478
0.0406961
0.125148
-6.55304e-08
0.0400379
-3.18695e-05
0.0041163
0.0307877
-3.93294e-10
-4.55077e-05
0.00453281
0.0339844
-3.66792e-05
0.00488626
0.0366883
-2.02177e-05
0.00514905
0.0386469
-2.79347e-09
0.00528672
0.0396761
2.02121e-05
0.00528672
0.0396761
3.66739e-05
0.00514905
0.0386469
4.55024e-05
0.00488626
0.0366883
3.18644e-05
0.00453281
0.0339844
0.0041163
0.0307877
-4.85613e-09
1.03015e-05
0.0127831
0.0826684
-7.65701e-10
1.77605e-05
0.0140074
0.0912253
2.22034e-05
0.0150448
0.0984206
1.5816e-05
0.0158011
0.103613
-9.31307e-09
0.0161976
0.106336
-1.58344e-05
0.0161976
0.106336
-2.22211e-05
0.0158011
0.103613
-1.77767e-05
0.0150448
0.0984206
-1.03161e-05
0.0140074
0.0912253
0.0127831
0.0826684
-1.44359e-08
0.000124985
0.0227565
0.121983
-1.24372e-09
0.000189526
0.02479
0.134696
0.000181994
0.0265018
0.145316
0.000110872
0.0277307
0.152951
-1.63371e-08
0.0283723
0.156944
-0.000110904
0.0283723
0.156944
-0.000182025
0.0277307
0.152951
-0.000189555
0.0265018
0.145316
-0.000125011
0.02479
0.134696
0.0227565
0.121983
-2.39067e-08
0.000297432
0.0315538
0.149405
-1.71749e-09
0.00044349
0.0341443
0.165164
0.000418077
0.0363038
0.178235
0.000250664
0.0378313
0.187589
-2.37412e-08
0.0386238
0.192468
-0.00025071
0.0386238
0.192468
-0.000418121
0.0378313
0.187589
-0.000443531
0.0363039
0.178235
-0.000297468
0.0341443
0.165164
0.0315538
0.149405
-3.26458e-08
0.000511854
0.0376377
0.166012
-2.26997e-09
0.000752381
0.0404407
0.183865
0.000703769
0.0427475
0.198557
0.000419226
0.0443543
0.209021
-3.13526e-08
0.0451818
0.214463
-0.000419288
0.0451818
0.214463
-0.000703827
0.0443544
0.209021
-0.000752433
0.0427475
0.198557
-0.0005119
0.0404407
0.183865
0.0376378
0.166012
-4.05653e-08
0.00075205
0.0403491
0.173049
-2.95855e-09
0.0010919
0.0430399
0.192219
0.00101585
0.0452169
0.207866
0.0006028
0.0467088
0.218953
-3.907e-08
0.0474705
0.224702
-0.000602876
0.0474705
0.224702
-0.00101592
0.0467089
0.218953
-0.00109196
0.0452169
0.207866
-0.000752104
0.0430399
0.192219
0.0403491
0.173049
-4.75294e-08
0.00100055
0.0397056
0.171799
-3.88906e-09
0.00144008
0.0420365
0.191677
0.00133481
0.0438815
0.20777
0.000790089
0.0451245
0.219112
-4.65332e-08
0.0457534
0.224974
-0.00079018
0.0457534
0.224974
-0.0013349
0.0451245
0.219112
-0.00144015
0.0438815
0.20777
-0.00100061
0.0420365
0.191677
0.0397056
0.171799
-5.34387e-08
0.00124423
0.0361893
0.163507
-5.02521e-09
0.00178343
0.0380071
0.18364
0.0016488
0.0394124
0.199807
0.00097401
0.0403446
0.211136
-5.34946e-08
0.0408124
0.21697
-0.000974114
0.0408124
0.21697
-0.00164889
0.0403446
0.211136
-0.00178351
0.0394125
0.199807
-0.0012443
0.0380071
0.18364
0.0361893
0.163507
-5.80187e-08
0.00148728
0.0305501
0.149325
-6.50875e-09
0.00212433
0.0318022
0.169405
0.00195633
0.0327549
0.185391
0.0011524
0.0333812
0.19652
-5.92238e-08
0.0336939
0.202228
-0.00115252
0.0336939
0.202228
-0.00195643
0.0333812
0.19652
-0.00212442
0.032755
0.185391
-0.00148735
0.0318022
0.169405
0.0305501
0.149325
-6.08707e-08
0.00174434
0.130303
-8.22305e-09
0.0236511
0.00247326
0.150177
0.0243747
0.00226467
0.165802
0.0249443
0.00132838
0.176599
0.0253277
-6.28889e-08
0.182112
0.0255194
-0.0013285
0.182112
0.0255194
-0.00226478
0.176599
0.0253278
-0.00247336
0.165802
0.0249443
-0.00174442
0.150177
0.0243747
0.130303
-6.17552e-08
0.0236511
2.11922e-06
0.0013472
0.0294384
-3.49335e-10
-2.80177e-07
0.0014959
0.0324909
1.25577e-07
0.00162522
0.0350626
1.42617e-07
0.00172394
0.036923
-2.3724e-09
0.00177659
0.0378997
-1.47331e-07
0.00177659
0.0378997
-1.30178e-07
0.00172394
0.036923
2.75724e-07
0.00162522
0.0350626
-2.12338e-06
0.0014959
0.0324909
0.0013472
0.0294384
-4.21011e-09
3.11479e-05
0.00483385
0.0791506
-7.36361e-10
4.02783e-05
0.00533527
0.0873768
3.71023e-05
0.00576607
0.0942829
2.20082e-05
0.00608611
0.0992663
-8.03684e-09
0.00625568
0.101878
-2.20241e-05
0.00625568
0.101878
-3.71176e-05
0.00608611
0.0992663
-4.02928e-05
0.00576607
0.0942829
-3.11612e-05
0.00533527
0.0873768
0.00483386
0.0791506
-1.27e-08
8.69339e-05
0.00932666
0.117403
-1.18593e-09
0.000123231
0.0102373
0.129757
0.000113752
0.0110128
0.140079
6.75183e-05
0.0115785
0.147505
-1.42347e-08
0.0118766
0.15139
-6.75463e-05
0.0118766
0.15139
-0.000113779
0.0115785
0.147505
-0.000123256
0.0110128
0.140079
-8.69563e-05
0.0102373
0.129757
0.00932667
0.117403
-2.09147e-08
0.000169227
0.0137063
0.144856
-1.66327e-09
0.000245733
0.0149555
0.160369
0.000228229
0.0160092
0.173256
0.000135539
0.0167664
0.182494
-2.07969e-08
0.017163
0.187317
-0.00013558
0.017163
0.187317
-0.000228268
0.0167664
0.182494
-0.000245768
0.0160092
0.173256
-0.000169258
0.0149555
0.160369
0.0137063
0.144856
-2.85785e-08
0.000275036
0.0171313
0.162312
-2.24733e-09
0.000400885
0.0185731
0.180122
0.00037309
0.0197751
0.194819
0.000221514
0.0206267
0.205313
-2.75353e-08
0.0210694
0.210778
-0.000221568
0.0210694
0.210778
-0.00037314
0.0206267
0.205313
-0.000400931
0.0197752
0.194819
-0.000275076
0.0185731
0.180122
0.0171313
0.162312
-3.55556e-08
0.000398925
0.0190981
0.170683
-2.96113e-09
0.000579594
0.020564
0.190047
0.000539213
0.0217681
0.205914
0.000319895
0.0226084
0.217191
-3.43373e-08
0.0230419
0.223049
-0.000319962
0.0230419
0.223049
-0.000539275
0.0226084
0.217191
-0.00057965
0.0217681
0.205914
-0.000398972
0.020564
0.190047
0.0190981
0.170683
-4.16757e-08
0.000533333
0.0194295
0.170935
-3.86246e-09
0.000771501
0.0207678
0.191235
0.000716905
0.0218467
0.207746
0.000424889
0.0225881
0.219425
-4.08559e-08
0.0229673
0.225473
-0.000424969
0.0229673
0.225473
-0.000716979
0.0225881
0.219425
-0.000771566
0.0218467
0.207746
-0.000533387
0.0207678
0.191235
0.0194295
0.170935
-4.68335e-08
0.000671447
0.0182209
0.164044
-4.93562e-09
0.000968411
0.0193198
0.184791
0.000898318
0.0201878
0.201536
0.000531654
0.0207754
0.213316
-4.68578e-08
0.0210733
0.219396
-0.000531745
0.0210733
0.219396
-0.000898402
0.0207754
0.213316
-0.000968484
0.0201878
0.201536
-0.000671506
0.0193198
0.184791
0.0182209
0.164044
-5.07807e-08
0.00081324
0.0157648
0.150967
-6.30868e-09
0.00116736
0.0165675
0.171803
0.00107856
0.0171893
0.188478
0.000636636
0.0176049
0.200133
-5.16986e-08
0.0178142
0.206124
-0.000636737
0.0178142
0.206124
-0.00107865
0.0176049
0.200133
-0.00116744
0.0171894
0.188478
-0.000813303
0.0165675
0.171803
0.0157648
0.150967
-5.31749e-08
0.00095333
0.132632
-7.83503e-09
0.0124826
0.00136049
0.15336
0.0129777
0.00125226
0.169733
0.0133667
0.000736976
0.181089
0.0136305
-5.46811e-08
0.1869
0.0137634
-0.000737082
0.1869
0.0137634
-0.00125236
0.181089
0.0136305
-0.00136057
0.169733
0.0133667
-0.000953394
0.15336
0.0129777
0.132632
-5.38456e-08
0.0124827
-5.61964e-06
0.000587803
0.0288562
-3.10526e-10
-8.37613e-06
0.000646647
0.031847
-6.63478e-06
0.000696432
0.0343645
-3.6559e-06
0.000734278
0.0361857
-1.85594e-09
0.000754171
0.0371419
3.65204e-06
0.000754172
0.0371419
6.63107e-06
0.000734279
0.0361857
8.37266e-06
0.000696433
0.0343645
5.61612e-06
0.000646649
0.031847
0.000587804
0.0288562
-3.4471e-09
-8.6538e-07
0.00204803
0.0776912
-7.22112e-10
-1.90445e-06
0.00225621
0.0857683
-6.25225e-07
0.00243361
0.0925445
1.7549e-07
0.00256549
0.0974343
-6.33767e-09
0.00263537
0.0999974
-1.87183e-07
0.00263537
0.0999974
6.13177e-07
0.0025655
0.0974343
1.89191e-06
0.00243362
0.0925445
8.54544e-07
0.00225621
0.0857683
0.00204803
0.0776912
-1.0359e-08
1.78954e-05
0.00398358
0.11545
-1.14786e-09
2.64741e-05
0.00438094
0.127624
2.59651e-05
0.00471958
0.137794
1.60446e-05
0.00496807
0.145112
-1.15039e-08
0.00509939
0.148942
-1.60675e-05
0.00509939
0.148942
-2.59869e-05
0.00496807
0.145112
-2.64941e-05
0.00471959
0.137794
-1.79136e-05
0.00438094
0.127624
0.00398359
0.11545
-1.70978e-08
5.13305e-05
0.00597042
0.142818
-1.58317e-09
7.64111e-05
0.00654259
0.158183
7.2735e-05
0.00702765
0.170951
4.39081e-05
0.00737924
0.180111
-1.69309e-08
0.0075642
0.184896
-4.39414e-05
0.0075642
0.184896
-7.27665e-05
0.00737925
0.180111
-7.64399e-05
0.00702766
0.170951
-5.1356e-05
0.0065426
0.158183
0.00597043
0.142818
-2.34242e-08
9.82e-05
0.00763368
0.160551
-2.09777e-09
0.000145459
0.00832498
0.178292
0.00013735
0.00890557
0.192949
8.23333e-05
0.00932115
0.203426
-2.2483e-08
0.00953846
0.208886
-8.23774e-05
0.00953846
0.208886
-0.000137391
0.00932116
0.203426
-0.000145497
0.00890558
0.192949
-9.82324e-05
0.00832499
0.178292
0.0076337
0.160551
-2.9208e-08
0.000156344
0.00870566
0.169455
-2.72382e-09
0.00022997
0.00943931
0.188859
0.000216185
0.0100473
0.204786
0.000129127
0.0104767
0.216123
-2.80724e-08
0.0106996
0.222017
-0.000129182
0.0106996
0.222017
-0.000216237
0.0104767
0.216123
-0.000230015
0.0100473
0.204786
-0.000156383
0.00943932
0.188859
0.00870567
0.169455
-3.42953e-08
0.000222498
0.00904864
0.170369
-3.51087e-09
0.000325301
0.00974618
0.190826
0.000304827
0.0103144
0.2075
0.000181626
0.01071
0.219315
-3.34038e-08
0.0109137
0.225441
-0.000181691
0.0109137
0.225441
-0.000304888
0.01071
0.219315
-0.000325354
0.0103144
0.2075
-0.000222543
0.0097462
0.190826
0.00904865
0.170369
-3.859e-08
0.000293602
0.00865254
0.164146
-4.43621e-09
0.000427465
0.00924882
0.185155
0.000399288
0.00972534
0.202154
0.000237325
0.0100522
0.214136
-3.82843e-08
0.0102191
0.220328
-0.0002374
0.0102191
0.220328
-0.000399357
0.0100522
0.214135
-0.000427525
0.00972535
0.202153
-0.00029365
0.00924883
0.185155
0.00865256
0.164146
-4.18869e-08
0.000369817
0.00761425
0.151636
-5.56636e-09
0.000534729
0.00806944
0.172818
0.000496716
0.00842572
0.189816
0.000294175
0.00866654
0.201721
-4.22044e-08
0.00878854
0.207849
-0.000294257
0.00878854
0.207849
-0.000496791
0.00866654
0.201721
-0.000534793
0.00842573
0.189816
-0.000369868
0.00806945
0.172817
0.00761426
0.151636
-4.39177e-08
0.000446241
0.133684
-6.76771e-09
0.00611518
0.000641444
0.154824
0.00641003
0.000593571
0.171564
0.00664284
0.000350458
0.183197
0.00680168
-4.46285e-08
0.189157
0.00688203
-0.000350545
0.189157
0.00688203
-0.00059365
0.183197
0.00680169
-0.000641511
0.171564
0.00664285
-0.000446294
0.154824
0.00641004
0.133684
-4.45615e-08
0.00611519
-8.53061e-07
0.000191344
0.0286657
-2.43272e-10
-1.65306e-06
0.00021194
0.0316358
-1.20262e-06
0.000229862
0.0341342
-6.42553e-07
0.000243931
0.0359412
-1.43463e-09
0.000251438
0.0368898
6.3968e-07
0.000251438
0.0368898
1.19982e-06
0.000243932
0.0359412
1.65031e-06
0.000229863
0.0341342
8.50339e-07
0.00021194
0.0316358
0.000191345
0.0286657
-2.62198e-09
1.85478e-06
0.00074694
0.0771338
-5.81093e-10
1.97448e-06
0.000827123
0.085153
2.14042e-06
0.00089657
0.0918776
1.40148e-06
0.000949121
0.0967298
-4.94031e-09
0.000977174
0.0992731
-1.41127e-06
0.000977174
0.0992731
-2.14986e-06
0.000949123
0.0967298
-1.98326e-06
0.000896572
0.0918776
-1.86284e-06
0.000827126
0.085153
0.000746942
0.0771338
-7.92363e-09
1.00447e-05
0.00153592
0.114651
-9.53864e-10
1.41007e-05
0.00169756
0.12675
1.33878e-05
0.00183689
0.136854
8.10942e-06
0.00194047
0.144126
-8.85887e-09
0.00199558
0.147932
-8.1269e-06
0.00199558
0.147932
-1.34045e-05
0.00194048
0.144126
-1.41162e-05
0.0018369
0.136854
-1.00587e-05
0.00169757
0.12675
0.00153592
0.114651
-1.32033e-08
2.43725e-05
0.00238887
0.141941
-1.33952e-09
3.55061e-05
0.00263167
0.157237
3.34421e-05
0.00283959
0.169951
2.00614e-05
0.00299209
0.179073
-1.30567e-08
0.00307283
0.183839
-2.0087e-05
0.00307283
0.183839
-3.34665e-05
0.00299209
0.179073
-3.55284e-05
0.0028396
0.169951
-2.43922e-05
0.00263168
0.157237
0.00238888
0.14194
-1.82027e-08
4.49088e-05
0.00314386
0.159751
-1.78459e-09
6.59486e-05
0.00344805
0.177455
6.20174e-05
0.00370613
0.192087
3.70877e-05
0.00389301
0.20255
-1.73851e-08
0.00399137
0.208005
-3.71218e-05
0.00399137
0.208005
-6.20495e-05
0.00389302
0.20255
-6.59775e-05
0.00370614
0.192087
-4.49339e-05
0.00344806
0.177455
0.00314387
0.159751
-2.28e-08
7.10866e-05
0.00367275
0.168855
-2.30709e-09
0.000104344
0.00400618
0.188268
9.79963e-05
0.0042855
0.204213
5.85002e-05
0.00448511
0.21557
-2.17465e-08
0.00458943
0.221478
-5.85427e-05
0.00458943
0.221478
-9.8036e-05
0.00448512
0.21557
-0.00010438
0.00428551
0.204213
-7.11167e-05
0.00400619
0.188268
0.00367277
0.168855
-2.68697e-08
0.000101705
0.00389727
0.170043
-2.93133e-09
0.000148887
0.00422374
0.190561
0.00013961
0.00449287
0.207302
8.32139e-05
0.00468248
0.219174
-2.59081e-08
0.00478079
0.225332
-8.32645e-05
0.00478079
0.225332
-0.000139657
0.00468249
0.219174
-0.000148928
0.00449288
0.207302
-0.00010174
0.00422375
0.190561
0.00389728
0.170043
-3.03368e-08
0.000135466
0.0037944
0.164114
-3.6398e-09
0.000197723
0.00408146
0.185235
0.000184934
0.00431371
0.202345
0.000110001
0.00447481
0.214418
-2.97228e-08
0.00455759
0.220661
-0.000110059
0.00455759
0.220661
-0.000184987
0.00447482
0.214418
-0.000197769
0.00431372
0.202345
-0.000135504
0.00408147
0.185235
0.00379441
0.164114
-3.30493e-08
0.000172108
0.00339261
0.151866
-4.4836e-09
0.000249418
0.00361835
0.173203
0.000232049
0.00379665
0.190351
0.00013757
0.00391824
0.202372
-3.28166e-08
0.00398013
0.208564
-0.000137634
0.00398014
0.208564
-0.000232108
0.00391825
0.202372
-0.000249468
0.00379665
0.19035
-0.000172148
0.00361836
0.173203
0.00339262
0.151866
-3.48084e-08
0.000207069
0.134104
-5.37074e-09
0.00276631
0.000299075
0.155434
0.00291645
0.000277713
0.172347
0.00303529
0.000164324
0.184112
0.00311676
-3.47998e-08
0.190143
0.00315814
-0.000164391
0.190143
0.00315814
-0.000277774
0.184112
0.00311677
-0.000299127
0.172347
0.0030353
-0.00020711
0.155434
0.00291645
0.134104
-3.55411e-08
0.00276632
-1.38935e-06
7.79026e-05
0.0285892
-1.7538e-10
-1.99992e-06
8.55293e-05
0.0315509
-1.60581e-06
9.20574e-05
0.0340417
-8.86116e-07
9.71418e-05
0.0358434
-1.04787e-09
9.98283e-05
0.0367891
8.84034e-07
9.98284e-05
0.0367891
1.60377e-06
9.71421e-05
0.0358434
1.99793e-06
9.20578e-05
0.0340417
1.3874e-06
8.55299e-05
0.0315509
7.79031e-05
0.0285892
-1.90159e-09
-1.63224e-06
0.000293415
0.0769199
-4.37251e-10
-2.45503e-06
0.000324112
0.0849152
-1.96654e-06
0.000350636
0.0916185
-1.04409e-06
0.000370754
0.0964553
-3.63018e-09
0.000381483
0.0989904
1.03692e-06
0.000381483
0.0989904
1.95962e-06
0.000370755
0.0964553
2.44845e-06
0.000350638
0.0916185
1.626e-06
0.000324114
0.0849152
0.000293417
0.0769199
-5.82282e-09
8.57971e-07
0.000604464
0.114339
-7.29586e-10
1.12553e-06
0.00066872
0.126405
1.33405e-06
0.000724123
0.13648
9.34891e-07
0.000765525
0.143732
-6.52992e-09
0.000787604
0.147527
-9.47758e-07
0.000787605
0.147527
-1.34636e-06
0.000765527
0.143732
-1.1368e-06
0.000724126
0.13648
-8.67625e-07
0.000668724
0.126405
0.000604468
0.114339
-9.63223e-09
6.04424e-06
0.000952194
0.141587
-1.05085e-09
8.93706e-06
0.00105192
0.156851
8.66062e-06
0.00113757
0.169538
5.30314e-06
0.0012008
0.178641
-9.65511e-09
0.00123438
0.183397
-5.32212e-06
0.00123439
0.183397
-8.67862e-06
0.0012008
0.178641
-8.95357e-06
0.00113758
0.169538
-6.05888e-06
0.00105192
0.156851
0.0009522
0.141587
-1.34956e-08
1.41808e-05
0.00127273
0.159416
-1.40863e-09
2.10252e-05
0.0014015
0.177098
2.00135e-05
0.00151121
0.191714
1.20716e-05
0.00159123
0.202167
-1.289e-08
0.0016335
0.207618
-1.20968e-05
0.0016335
0.207618
-2.00373e-05
0.00159123
0.202167
-2.10468e-05
0.00151122
0.191714
-1.41996e-05
0.00140151
0.177098
0.00127274
0.159416
-1.7045e-08
2.50286e-05
0.00151049
0.168592
-1.81457e-09
3.70176e-05
0.00165561
0.188002
3.50311e-05
0.00177782
0.203948
2.10199e-05
0.00186581
0.215309
-1.61549e-08
0.00191199
0.22122
-2.10516e-05
0.00191199
0.22122
-3.50607e-05
0.00186581
0.215309
-3.7044e-05
0.00177783
0.203948
-2.50512e-05
0.00165562
0.188002
0.0015105
0.168592
-2.02013e-08
3.81451e-05
0.00162706
0.169888
-2.28366e-09
5.62281e-05
0.0017729
0.190426
5.30347e-05
0.00189385
0.207189
3.17292e-05
0.00197972
0.219081
-1.92784e-08
0.00202443
0.225252
-3.17669e-05
0.00202443
0.225252
-5.30697e-05
0.00197972
0.219081
-5.6259e-05
0.00189386
0.207189
-3.8171e-05
0.00177291
0.190426
0.00162706
0.169888
-2.29275e-08
5.30452e-05
0.00160597
0.164082
-2.80322e-09
7.7917e-05
0.00173748
0.185245
7.3227e-05
0.00184456
0.202399
4.36833e-05
0.0019194
0.214508
-2.21518e-08
0.001958
0.220771
-4.37265e-05
0.00195801
0.220771
-7.32669e-05
0.0019194
0.214508
-7.79518e-05
0.00184457
0.202399
-5.30739e-05
0.00173749
0.185245
0.00160598
0.164082
-2.51166e-08
6.96993e-05
0.0014532
0.151949
-3.39596e-09
0.000101501
0.00155932
0.17335
9.47798e-05
0.00164364
0.190558
5.63161e-05
0.00170151
0.202628
-2.45179e-08
0.00173106
0.208847
-5.63638e-05
0.00173107
0.208847
-9.48236e-05
0.00170151
0.202628
-0.000101539
0.00164364
0.190558
-6.97299e-05
0.00155932
0.17335
0.0014532
0.151949
-2.66353e-08
8.59124e-05
0.134274
-3.99551e-09
0.00119664
0.00012472
0.155685
0.00126914
0.000116251
0.172672
0.00132678
6.89411e-05
0.184494
0.00136644
-2.61168e-08
0.190557
0.00138664
-6.89918e-05
0.190557
0.00138664
-0.000116298
0.184494
0.00136644
-0.000124759
0.172672
0.00132678
-8.59441e-05
0.155685
0.00126915
0.134274
-2.74503e-08
0.00119665
-4.0109e-07
2.02962e-05
0.0285693
-1.23296e-10
-6.16853e-07
2.24811e-05
0.0315287
-4.94761e-07
2.44763e-05
0.0340171
-2.74457e-07
2.61172e-05
0.035817
-7.36479e-10
2.70021e-05
0.0367618
2.72993e-07
2.70021e-05
0.0367618
4.93329e-07
2.61174e-05
0.035817
6.15455e-07
2.44766e-05
0.0340171
3.99721e-07
2.24815e-05
0.0315286
2.02965e-05
0.0285693
-1.31979e-09
-5.17305e-07
9.1035e-05
0.0768497
-3.25243e-10
-8.77949e-07
0.000101341
0.0848367
-7.31844e-07
0.000110513
0.0915323
-4.00382e-07
0.000117649
0.0963634
-2.56505e-09
0.0001215
0.0988955
3.95312e-07
0.0001215
0.0988955
7.26962e-07
0.00011765
0.0963634
8.73298e-07
0.000110514
0.0915323
5.12893e-07
0.000101342
0.0848367
9.10361e-05
0.0768497
-4.08561e-09
3.42332e-07
0.000202323
0.114227
-5.4302e-10
3.12285e-07
0.000225413
0.126281
3.46507e-07
0.00024569
0.136345
2.42092e-07
0.000261112
0.143589
-4.6379e-09
0.000269408
0.147379
-2.51228e-07
0.000269408
0.147379
-3.55247e-07
0.000261113
0.143589
-3.20277e-07
0.000245692
0.136345
-3.49149e-07
0.000225416
0.126281
0.000202326
0.114227
-6.80948e-09
2.26481e-06
0.000333708
0.141453
-7.83532e-10
3.19294e-06
0.000371157
0.156705
3.03864e-06
0.000403775
0.16938
1.84445e-06
0.000428198
0.178475
-6.8818e-09
0.000441269
0.183227
-1.85798e-06
0.000441269
0.183227
-3.05148e-06
0.0004282
0.178475
-3.20472e-06
0.000403779
0.16938
-2.27524e-06
0.000371161
0.156704
0.000333712
0.141453
-9.61816e-09
5.4136e-06
0.000460924
0.159284
-1.04915e-09
7.88565e-06
0.000510931
0.176956
7.44928e-06
0.000554056
0.191564
4.47543e-06
0.000585905
0.202012
-9.21356e-09
0.000602846
0.207461
-4.49351e-06
0.000602847
0.207461
-7.46633e-06
0.000585908
0.202012
-7.90111e-06
0.000554061
0.191564
-5.42705e-06
0.000510936
0.176956
0.00046093
0.159284
-1.22379e-08
9.74463e-06
0.000561133
0.168482
-1.34692e-09
1.43152e-05
0.000619071
0.187889
1.35043e-05
0.000668408
0.203834
8.08901e-06
0.000704342
0.215196
-1.15713e-08
0.000723321
0.221108
-8.11167e-06
0.000723322
0.221108
-1.35255e-05
0.000704346
0.215196
-1.43342e-05
0.000668412
0.203834
-9.76089e-06
0.000619077
0.187889
0.000561139
0.168482
-1.46039e-08
1.51156e-05
0.000617059
0.169817
-1.68274e-09
2.22444e-05
0.000676691
0.190361
2.09616e-05
0.000726671
0.207132
1.25335e-05
0.000762536
0.219031
-1.38368e-08
0.000781319
0.225206
-1.25605e-05
0.00078132
0.225206
-2.09868e-05
0.000762539
0.219031
-2.22668e-05
0.000726676
0.207132
-1.51344e-05
0.000676697
0.190361
0.000617065
0.169817
-1.66874e-08
2.13419e-05
0.000619657
0.164058
-2.04756e-09
3.13631e-05
0.000674616
0.185237
2.94783e-05
0.000719802
0.202408
1.75852e-05
0.000751674
0.214531
-1.59332e-08
0.000768196
0.220802
-1.76163e-05
0.000768197
0.220802
-2.95071e-05
0.000751677
0.214531
-3.13883e-05
0.000719807
0.202408
-2.13629e-05
0.000674622
0.185237
0.000619663
0.164058
-1.84138e-08
2.83485e-05
0.000569071
0.151971
-2.45217e-09
4.13228e-05
0.000614403
0.173397