/*--------------------------------*- C++ -*----------------------------------*\
| =========                 |                                                 |
| \\      /  F ield         | OpenFOAM: The Open Source CFD Toolbox           |
|  \\    /   O peration     | Version:  2106                                  |
|   \\  /    A nd           | Website:  www.openfoam.com                      |
|    \\/     M anipulation  |                                                 |
\*---------------------------------------------------------------------------*/
FoamFile
{
    version     2.0;
    format      ascii;
    arch        "LSB;label=32;scalar=64";
    class       volVectorField;
    location    "0.67";
    object      U;
}
// * * * * * * * * * * * * * * * * * * * * * * * * * * * * * * * * * * * * * //

dimensions      [0 1 -1 0 0 0 0];

internalField   nonuniform List<vector> 
10000
(
(0.0625643 0.0737219 0.345103)
(0.0533599 0.0838422 0.359582)
(0.03985 0.0929938 0.370946)
(0.0247215 0.0993763 0.378795)
(0.008378 0.102676 0.382783)
(-0.00837801 0.102676 0.382783)
(-0.0247215 0.0993763 0.378795)
(-0.03985 0.0929937 0.370946)
(-0.0533599 0.0838422 0.359582)
(-0.0625643 0.0737219 0.345103)
(0.172066 0.204137 0.727841)
(0.145246 0.231381 0.74749)
(0.108435 0.255343 0.762129)
(0.0670892 0.27193 0.772026)
(0.0227095 0.280485 0.776975)
(-0.0227096 0.280485 0.776975)
(-0.0670892 0.27193 0.772026)
(-0.108435 0.255343 0.762129)
(-0.145246 0.231381 0.74749)
(-0.172066 0.204137 0.727841)
(0.222644 0.264369 0.923751)
(0.185837 0.29608 0.939577)
(0.137853 0.323771 0.95064)
(0.0848684 0.342715 0.957943)
(0.0286571 0.352421 0.961524)
(-0.0286572 0.352421 0.961524)
(-0.0848684 0.342715 0.957943)
(-0.137853 0.323771 0.95064)
(-0.185837 0.29608 0.939577)
(-0.222644 0.264369 0.923751)
(0.237669 0.281755 1.02286)
(0.196434 0.311637 1.03337)
(0.144814 0.337783 1.04003)
(0.0887413 0.355469 1.0443)
(0.029897 0.364473 1.04633)
(-0.0298971 0.364473 1.04633)
(-0.0887414 0.355469 1.0443)
(-0.144814 0.337783 1.04003)
(-0.196434 0.311637 1.03337)
(-0.237669 0.281755 1.02286)
(0.235735 0.278966 1.07121)
(0.193236 0.304969 1.07717)
(0.141708 0.327858 1.0803)
(0.0864894 0.343208 1.08217)
(0.0290823 0.350974 1.08302)
(-0.0290823 0.350974 1.08302)
(-0.0864895 0.343208 1.08217)
(-0.141708 0.327858 1.0803)
(-0.193236 0.304969 1.07717)
(-0.235735 0.278966 1.07121)
(0.224733 0.265461 1.09229)
(0.182824 0.286872 1.09487)
(0.133437 0.30587 1.09552)
(0.081141 0.318537 1.09577)
(0.0272359 0.32491 1.09582)
(-0.027236 0.32491 1.09582)
(-0.0811411 0.318537 1.09577)
(-0.133437 0.30587 1.09552)
(-0.182824 0.286872 1.09487)
(-0.224733 0.265461 1.09229)
(0.2084 0.245541 1.0989)
(0.168254 0.26212 1.09918)
(0.122252 0.276977 1.09827)
(0.0740796 0.286864 1.0975)
(0.024824 0.291817 1.09707)
(-0.0248241 0.291817 1.09707)
(-0.0740797 0.286864 1.0975)
(-0.122252 0.276977 1.09827)
(-0.168254 0.26212 1.09918)
(-0.2084 0.245541 1.0989)
(0.189069 0.22193 1.09821)
(0.151471 0.23372 1.09704)
(0.109594 0.244424 1.09524)
(0.0661929 0.251582 1.09393)
(0.0221461 0.255168 1.09324)
(-0.0221462 0.255168 1.09324)
(-0.066193 0.251582 1.09393)
(-0.109594 0.244424 1.09524)
(-0.151471 0.23372 1.09704)
(-0.189069 0.22193 1.09821)
(0.168271 0.196415 1.09423)
(0.133847 0.203604 1.09217)
(0.0964498 0.21028 1.08995)
(0.058072 0.214875 1.0884)
(0.0193995 0.217197 1.08762)
(-0.0193997 0.217197 1.08762)
(-0.0580721 0.214875 1.0884)
(-0.09645 0.21028 1.08995)
(-0.133847 0.203604 1.09217)
(-0.168271 0.196415 1.09423)
(0.147169 0.170648 1.08918)
(0.116581 0.171747 1.08666)
(0.0834268 0.175025 1.0843)
(0.0500457 0.177414 1.08271)
(0.0166886 0.178642 1.08191)
(-0.0166888 0.178642 1.08191)
(-0.0500459 0.177414 1.08271)
(-0.083427 0.175025 1.0843)
(-0.116581 0.171747 1.08666)
(-0.147169 0.170648 1.08918)
(0.0111957 0.0143012 0.266523)
(0.00940601 0.0175921 0.278785)
(0.00710235 0.0202356 0.288826)
(0.00449601 0.0220479 0.295816)
(0.00153831 0.0229921 0.299393)
(-0.00153833 0.0229921 0.299393)
(-0.00449603 0.0220479 0.295816)
(-0.00710237 0.0202356 0.288826)
(-0.00940603 0.017592 0.278785)
(-0.0111958 0.0143012 0.266523)
(0.0544188 0.0658441 0.629516)
(0.0467291 0.0792192 0.651461)
(0.0357631 0.0906799 0.66906)
(0.0226096 0.0988007 0.681163)
(0.00773719 0.103063 0.687306)
(-0.00773726 0.103063 0.687306)
(-0.0226097 0.0988006 0.681163)
(-0.0357631 0.0906799 0.66906)
(-0.0467291 0.0792191 0.651461)
(-0.0544188 0.0658441 0.629516)
(0.0977895 0.116803 0.876479)
(0.0834323 0.138142 0.900301)
(0.0635171 0.156455 0.918987)
(0.0399154 0.16938 0.931682)
(0.0136189 0.17613 0.938075)
(-0.013619 0.17613 0.938075)
(-0.0399155 0.16938 0.931682)
(-0.0635172 0.156455 0.918987)
(-0.0834323 0.138142 0.900301)
(-0.0977896 0.116803 0.876479)
(0.133876 0.15873 1.04425)
(0.113252 0.184864 1.06624)
(0.0856649 0.207185 1.08308)
(0.0535287 0.222827 1.09438)
(0.0182119 0.23095 1.10002)
(-0.018212 0.23095 1.10002)
(-0.0535288 0.222827 1.09438)
(-0.0856651 0.207185 1.08308)
(-0.113252 0.184864 1.06624)
(-0.133876 0.15873 1.04425)
(0.159717 0.188291 1.15729)
(0.133957 0.216163 1.17591)
(0.100692 0.239809 1.18978)
(0.0625949 0.256259 1.19897)
(0.0212418 0.264756 1.20352)
(-0.021242 0.264756 1.20352)
(-0.0625951 0.256259 1.19897)
(-0.100692 0.239809 1.18978)
(-0.133957 0.216163 1.17591)
(-0.159717 0.188291 1.15729)
(0.175355 0.205659 1.23234)
(0.14583 0.232781 1.24717)
(0.108957 0.255592 1.25788)
(0.0674098 0.271355 1.26488)
(0.0228213 0.279454 1.26832)
(-0.0228216 0.279454 1.26832)
(-0.06741 0.271355 1.26488)
(-0.108957 0.255592 1.25788)
(-0.14583 0.232781 1.24717)
(-0.175355 0.205659 1.23234)
(0.181849 0.212176 1.28122)
(0.14994 0.23665 1.29245)
(0.111372 0.256991 1.3003)
(0.0685935 0.270963 1.30535)
(0.02317 0.278108 1.30779)
(-0.0231703 0.278108 1.30779)
(-0.0685938 0.270963 1.30535)
(-0.111373 0.256991 1.3003)
(-0.149941 0.23665 1.29245)
(-0.181849 0.212176 1.28122)
(0.18054 0.209473 1.31227)
(0.147573 0.229917 1.32041)
(0.108993 0.246635 1.32588)
(0.0668423 0.258063 1.32932)
(0.0225306 0.263889 1.33097)
(-0.0225309 0.263889 1.33097)
(-0.0668426 0.258063 1.32932)
(-0.108993 0.246635 1.32588)
(-0.147573 0.229917 1.32041)
(-0.18054 0.209473 1.31227)
(0.172885 0.199223 1.33132)
(0.140146 0.214706 1.33697)
(0.102922 0.227007 1.34061)
(0.0628496 0.235435 1.34283)
(0.0211398 0.239727 1.34387)
(-0.0211402 0.239727 1.34387)
(-0.0628499 0.235435 1.34283)
(-0.102923 0.227007 1.34061)
(-0.140146 0.214706 1.33697)
(-0.172885 0.199223 1.33132)
(0.160451 0.184234 1.34249)
(0.129204 0.192163 1.34631)
(0.0941096 0.199701 1.34858)
(0.057179 0.2049 1.34989)
(0.0191853 0.207545 1.35049)
(-0.0191857 0.207545 1.35049)
(-0.0571794 0.2049 1.34989)
(-0.09411 0.199701 1.34858)
(-0.129204 0.192163 1.34631)
(-0.160452 0.184234 1.34249)
(0.00112189 0.00125287 0.157634)
(0.00113308 0.00159993 0.165933)
(0.000883278 0.00200809 0.172864)
(0.000591256 0.00231042 0.177769)
(0.000206026 0.00247796 0.180309)
(-0.000206048 0.00247796 0.180309)
(-0.000591277 0.00231042 0.177769)
(-0.000883298 0.00200808 0.172863)
(-0.0011331 0.00159992 0.165933)
(-0.00112191 0.00125286 0.157634)
(0.0180181 0.0209078 0.441629)
(0.0162038 0.0255074 0.461831)
(0.0126818 0.0298358 0.478422)
(0.00814498 0.0330328 0.490067)
(0.00280659 0.0347503 0.496061)
(-0.00280666 0.0347503 0.496061)
(-0.00814505 0.0330328 0.490067)
(-0.0126819 0.0298358 0.478422)
(-0.0162038 0.0255074 0.461831)
(-0.0180181 0.0209077 0.441629)
(0.0410717 0.0478068 0.685201)
(0.0362748 0.0574361 0.712778)
(0.0281817 0.0662193 0.735063)
(0.0179521 0.0726417 0.750576)
(0.00616374 0.076062 0.758519)
(-0.00616387 0.076062 0.758519)
(-0.0179522 0.0726417 0.750576)
(-0.0281818 0.0662193 0.735063)
(-0.0362749 0.0574361 0.712778)
(-0.0410718 0.0478068 0.685201)
(0.0659449 0.07682 0.887819)
(0.05748 0.0909994 0.918999)
(0.0443264 0.103686 0.943777)
(0.0280558 0.112865 0.960879)
(0.00960364 0.117718 0.969593)
(-0.00960382 0.117718 0.969593)
(-0.028056 0.112865 0.960879)
(-0.0443265 0.103686 0.943777)
(-0.0574802 0.0909993 0.918998)
(-0.065945 0.07682 0.887819)
(0.0881656 0.102588 1.05291)
(0.0759767 0.11985 1.08491)
(0.058175 0.135067 1.10991)
(0.0366143 0.14597 1.12701)
(0.0124992 0.151697 1.13569)
(-0.0124995 0.151697 1.13569)
(-0.0366145 0.14597 1.12701)
(-0.0581752 0.135067 1.10991)
(-0.0759769 0.11985 1.08491)
(-0.0881657 0.102588 1.05291)
(0.105491 0.122432 1.18538)
(0.0899544 0.141024 1.21632)
(0.0684067 0.15719 1.24007)
(0.04283 0.168671 1.25619)
(0.014584 0.174666 1.26433)
(-0.0145843 0.174666 1.26433)
(-0.0428303 0.168671 1.25619)
(-0.068407 0.15719 1.24007)
(-0.0899546 0.141024 1.21632)
(-0.105491 0.122431 1.18538)
(0.117072 0.135383 1.29036)
(0.0988164 0.15362 1.31908)
(0.074642 0.169241 1.34077)
(0.0465014 0.180247 1.35538)
(0.0157955 0.185962 1.36271)
(-0.0157959 0.185962 1.36271)
(-0.0465017 0.180246 1.35538)
(-0.0746423 0.169241 1.34077)
(-0.0988166 0.15362 1.31908)
(-0.117072 0.135383 1.29036)
(0.122783 0.141331 1.37262)
(0.102595 0.157736 1.39853)
(0.0769825 0.17154 1.41781)
(0.0477265 0.181193 1.43069)
(0.0161726 0.186182 1.43713)
(-0.016173 0.186181 1.43713)
(-0.0477269 0.181192 1.43069)
(-0.0769828 0.17154 1.41781)
(-0.102595 0.157736 1.39853)
(-0.122783 0.14133 1.37262)
(0.123023 0.140713 1.43626)
(0.101783 0.154107 1.45925)
(0.0758434 0.165049 1.4761)
(0.0467785 0.172668 1.48724)
(0.0158108 0.17659 1.49278)
(-0.0158113 0.17659 1.49278)
(-0.0467789 0.172668 1.48724)
(-0.0758438 0.165049 1.4761)
(-0.101784 0.154107 1.45925)
(-0.123024 0.140713 1.43626)
(0.118612 0.135344 1.48464)
(0.0971753 0.143394 1.5052)
(0.0716968 0.150675 1.51971)
(0.0439466 0.155719 1.52917)
(0.0148084 0.1583 1.53383)
(-0.0148089 0.1583 1.53383)
(-0.043947 0.155719 1.52917)
(-0.0716972 0.150675 1.51971)
(-0.0971757 0.143394 1.5052)
(-0.118612 0.135344 1.48464)
(0.000713248 0.000936729 0.137895)
(0.000557513 0.00117453 0.144703)
(0.000381818 0.00134317 0.150245)
(0.000236791 0.00144299 0.154136)
(7.92911e-05 0.00149295 0.156143)
(-7.93125e-05 0.00149295 0.156143)
(-0.000236812 0.00144298 0.154136)
(-0.000381837 0.00134316 0.150245)
(-0.00055753 0.00117452 0.144703)
(-0.000713263 0.000936718 0.137895)
(0.00704035 0.00841818 0.395408)
(0.00611371 0.0103762 0.413474)
(0.00470144 0.0120705 0.428099)
(0.00299954 0.0132869 0.438334)
(0.00103014 0.013934 0.443602)
(-0.00103021 0.013934 0.443602)
(-0.00299961 0.0132868 0.438334)
(-0.0047015 0.0120705 0.428098)
(-0.00611376 0.0103761 0.413473)
(-0.0070404 0.00841815 0.395408)
(0.0172667 0.0203874 0.628539)
(0.015063 0.024823 0.655208)
(0.0116578 0.028716 0.676631)
(0.00742712 0.0315424 0.691563)
(0.00255062 0.033046 0.699227)
(-0.00255074 0.033046 0.699227)
(-0.00742724 0.0315424 0.691563)
(-0.0116579 0.0287159 0.676631)
(-0.0150631 0.024823 0.655208)
(-0.0172668 0.0203873 0.628538)
(0.0296253 0.0347817 0.835373)
(0.0257601 0.0418428 0.867963)
(0.0199109 0.0480393 0.893897)
(0.0126449 0.0525337 0.911883)
(0.0043364 0.0549173 0.921086)
(-0.00433658 0.0549173 0.921086)
(-0.012645 0.0525337 0.911883)
(-0.0199111 0.0480393 0.893896)
(-0.0257603 0.0418428 0.867963)
(-0.0296254 0.0347816 0.835373)
(0.0420655 0.0491668 1.01587)
(0.0363518 0.058402 1.05196)
(0.0279849 0.0664605 1.08037)
(0.0177021 0.0722763 1.09998)
(0.0060592 0.0753475 1.10998)
(-0.00605942 0.0753475 1.10998)
(-0.0177023 0.0722763 1.09998)
(-0.0279851 0.0664605 1.08037)
(-0.036352 0.058402 1.05196)
(-0.0420656 0.0491667 1.01587)
(0.0530963 0.0617852 1.17118)
(0.0455364 0.072396 1.20875)
(0.0348707 0.0815685 1.23799)
(0.0219614 0.0881445 1.25806)
(0.00750098 0.0916005 1.26826)
(-0.00750126 0.0916005 1.26826)
(-0.0219617 0.0881445 1.25806)
(-0.034871 0.0815685 1.23799)
(-0.0455366 0.072396 1.20875)
(-0.0530965 0.0617851 1.17118)
(0.0617323 0.0714969 1.30312)
(0.0524914 0.0825297 1.34055)
(0.0399563 0.0919459 1.36936)
(0.0250477 0.0986465 1.38903)
(0.00853548 0.10215 1.39899)
(-0.00853582 0.10215 1.39899)
(-0.025048 0.0986464 1.38903)
(-0.0399566 0.0919458 1.36936)
(-0.0524917 0.0825296 1.34055)
(-0.0617325 0.0714969 1.30312)
(0.067382 0.0776202 1.41371)
(0.0567697 0.0881007 1.44983)
(0.0429353 0.0968991 1.47734)
(0.0267849 0.103109 1.49601)
(0.00910532 0.10634 1.50543)
(-0.0091057 0.10634 1.50543)
(-0.0267853 0.103109 1.49601)
(-0.0429357 0.0968991 1.47734)
(-0.05677 0.0881006 1.44983)
(-0.0673822 0.0776201 1.41371)
(0.06985 0.0798917 1.50494)
(0.0582879 0.0889407 1.53907)
(0.0437702 0.0963242 1.56476)
(0.0271584 0.101498 1.58205)
(0.00920712 0.104175 1.59072)
(-0.00920754 0.104175 1.59072)
(-0.0271588 0.101498 1.58205)
(-0.0437706 0.0963242 1.56476)
(-0.0582883 0.0889406 1.53907)
(-0.0698503 0.0798917 1.50494)
(0.0693171 0.0791001 1.57848)
(0.0572365 0.0851133 1.6109)
(0.0425432 0.0903397 1.6344)
(0.0262215 0.0939674 1.64998)
(0.00886 0.0958295 1.65774)
(-0.00886045 0.0958295 1.65774)
(-0.0262219 0.0939674 1.64998)
(-0.0425436 0.0903397 1.6344)
(-0.0572368 0.0851133 1.6109)
(-0.0693174 0.0791001 1.57848)
(0.000130309 0.000142492 0.126973)
(0.000120731 0.000186783 0.133315)
(8.92068e-05 0.000232178 0.13847)
(6.10252e-05 0.000263996 0.142095)
(2.1074e-05 0.000282036 0.143966)
(-2.10925e-05 0.000282035 0.143966)
(-6.10431e-05 0.000263992 0.142095)
(-8.92233e-05 0.000232171 0.13847)
(-0.000120746 0.000186774 0.133315)
(-0.000130321 0.000142482 0.126973)
(0.00250992 0.00290317 0.36822)
(0.00224504 0.00359913 0.385468)
(0.00175849 0.00424014 0.399442)
(0.00113653 0.00471709 0.409247)
(0.000392432 0.00497599 0.4143)
(-0.000392493 0.00497598 0.4143)
(-0.00113659 0.00471708 0.409247)
(-0.00175854 0.00424013 0.399442)
(-0.00224509 0.0035991 0.385468)
(-0.00250996 0.00290314 0.36822)
(0.00683722 0.00793172 0.591882)
(0.00607464 0.00972363 0.618063)
(0.00476149 0.011351 0.63916)
(0.00305992 0.0125617 0.653923)
(0.00105498 0.0132142 0.661517)
(-0.00105509 0.0132142 0.661517)
(-0.00306002 0.0125616 0.653923)
(-0.00476159 0.0113509 0.63916)
(-0.00607473 0.00972359 0.618063)
(-0.00683729 0.00793168 0.591882)
(0.0125487 0.0145599 0.796459)
(0.0110762 0.0176548 0.82951)
(0.00865667 0.0204394 0.85596)
(0.00553948 0.0225006 0.874405)
(0.00190656 0.023606 0.883874)
(-0.00190671 0.023606 0.883873)
(-0.00553963 0.0225006 0.874405)
(-0.00865681 0.0204394 0.85596)
(-0.0110763 0.0176548 0.82951)
(-0.0125488 0.0145599 0.796459)
(0.0187694 0.0217425 0.981213)
(0.0164472 0.0260544 1.01912)
(0.0127971 0.029898 1.04921)
(0.00815449 0.0327243 1.07012)
(0.00280113 0.0342325 1.08082)
(-0.00280134 0.0342324 1.08082)
(-0.00815468 0.0327242 1.07012)
(-0.0127972 0.029898 1.04921)
(-0.0164474 0.0260544 1.01912)
(-0.0187695 0.0217425 0.981212)
(0.0247299 0.0285664 1.14602)
(0.0214985 0.0337877 1.18691)
(0.0166368 0.0383923 1.21909)
(0.0105544 0.0417527 1.24135)
(0.00361779 0.0435368 1.25271)
(-0.00361804 0.0435368 1.25271)
(-0.0105546 0.0417527 1.24135)
(-0.016637 0.0383922 1.21909)
(-0.0214987 0.0337877 1.18691)
(-0.0247301 0.0285664 1.14602)
(0.0298151 0.0343109 1.29119)
(0.0256945 0.0399909 1.3334)
(0.0197627 0.0449349 1.36631)
(0.0124786 0.0485138 1.38898)
(0.00426745 0.0504036 1.40052)
(-0.00426774 0.0504036 1.40052)
(-0.0124788 0.0485137 1.38898)
(-0.019763 0.0449348 1.36631)
(-0.0256948 0.0399908 1.3334)
(-0.0298153 0.0343108 1.29119)
(0.0335714 0.0384447 1.41726)
(0.0286621 0.0440632 1.4594)
(0.0218982 0.048875 1.49196)
(0.0137573 0.0523263 1.51427)
(0.00469282 0.0541381 1.5256)
(-0.00469316 0.0541381 1.5256)
(-0.0137576 0.0523262 1.51427)
(-0.0218985 0.048875 1.49196)
(-0.0286624 0.0440632 1.4594)
(-0.0335717 0.0384447 1.41726)
(0.0357545 0.0406623 1.52481)
(0.0302209 0.0457079 1.56594)
(0.0229116 0.0499066 1.59737)
(0.0143097 0.0528882 1.61872)
(0.0048668 0.0544424 1.62949)
(-0.00486717 0.0544424 1.62949)
(-0.0143101 0.0528882 1.61872)
(-0.022912 0.0499065 1.59737)
(-0.0302212 0.0457078 1.56594)
(-0.0357548 0.0406622 1.52481)
(0.0363359 0.0412704 1.61424)
(0.030337 0.0448359 1.6545)
(0.0227434 0.0479206 1.6841)
(0.0140998 0.0500798 1.70393)
(0.00477768 0.0511942 1.71386)
(-0.00477807 0.0511942 1.71386)
(-0.0141002 0.0500798 1.70393)
(-0.0227438 0.0479206 1.6841)
(-0.0303373 0.0448359 1.6545)
(-0.0363362 0.0412704 1.61424)
(7.94986e-05 0.000107296 0.124013)
(5.56592e-05 0.000136113 0.130157)
(3.41189e-05 0.000152801 0.13512)
(2.08663e-05 0.000161048 0.138604)
(6.77586e-06 0.000164993 0.1404)
(-6.79094e-06 0.000164992 0.1404)
(-2.08811e-05 0.000161044 0.138604)
(-3.41321e-05 0.000152796 0.13512)
(-5.56715e-05 0.000136106 0.130157)
(-7.9509e-05 0.000107288 0.124013)
(0.00103755 0.00123907 0.359744)
(0.000891226 0.00153686 0.376549)
(0.00068157 0.00178749 0.390104)
(0.000435255 0.00196739 0.399607)
(0.000149393 0.0020636 0.404502)
(-0.000149444 0.0020636 0.404502)
(-0.000435304 0.00196738 0.399607)
(-0.000681615 0.00178748 0.390104)
(-0.000891266 0.00153684 0.376549)
(-0.00103758 0.00123905 0.359744)
(0.00285955 0.00336593 0.579499)
(0.00249735 0.00414023 0.605251)
(0.00193899 0.00481584 0.625949)
(0.00124059 0.00531175 0.640431)
(0.000426851 0.00557775 0.647882)
(-0.00042694 0.00557774 0.647882)
(-0.00124067 0.00531174 0.640431)
(-0.00193907 0.00481582 0.625949)
(-0.00249742 0.0041402 0.605251)
(-0.00285961 0.00336589 0.579499)
(0.00536023 0.00627039 0.782553)
(0.00469444 0.00764441 0.815493)
(0.00365611 0.0088554 0.841834)
(0.00233711 0.00974784 0.860219)
(0.000804083 0.010226 0.869663)
(-0.000804211 0.010226 0.869663)
(-0.00233723 0.00974782 0.860219)
(-0.00365623 0.00885537 0.841834)
(-0.00469455 0.00764437 0.815493)
(-0.00536032 0.00627034 0.782553)
(0.00821488 0.00956536 0.96841)
(0.00717833 0.0115413 1.00678)
(0.00558364 0.0132832 1.03728)
(0.00356085 0.0145643 1.0585)
(0.00122385 0.0152487 1.06938)
(-0.00122402 0.0152487 1.06938)
(-0.00356102 0.0145642 1.0585)
(-0.00558379 0.0132832 1.03728)
(-0.00717847 0.0115413 1.00678)
(-0.00821499 0.00956532 0.96841)
(0.0110926 0.0128591 1.1368)
(0.00964504 0.0153298 1.1789)
(0.00747613 0.0174959 1.21212)
(0.004752 0.0190811 1.23516)
(0.00163063 0.0199248 1.24695)
(-0.00163084 0.0199247 1.24695)
(-0.0047522 0.0190811 1.23516)
(-0.00747632 0.0174959 1.21212)
(-0.0096452 0.0153297 1.1789)
(-0.0110928 0.0128591 1.1368)
(0.0136881 0.0157935 1.28762)
(0.0118211 0.0185655 1.33185)
(0.00911759 0.0209724 1.36648)
(0.00577199 0.0227217 1.39042)
(0.00197666 0.0236483 1.40264)
(-0.00197691 0.0236483 1.40264)
(-0.00577223 0.0227217 1.39041)
(-0.00911782 0.0209723 1.36648)
(-0.0118213 0.0185655 1.33184)
(-0.0136883 0.0157935 1.28762)
(0.0157434 0.0180648 1.42086)
(0.0134858 0.0208897 1.46579)
(0.0103392 0.0233086 1.5007)
(0.00651467 0.0250514 1.52472)
(0.00222568 0.0259693 1.53694)
(-0.00222597 0.0259693 1.53694)
(-0.00651494 0.0250514 1.52472)
(-0.0103395 0.0233086 1.5007)
(-0.013486 0.0208897 1.46579)
(-0.0157436 0.0180648 1.42086)
(0.0170884 0.0194606 1.53644)
(0.0145018 0.0220748 1.58104)
(0.0110362 0.024254 1.61533)
(0.00691384 0.0258077 1.63874)
(0.00235509 0.0266199 1.65059)
(-0.00235541 0.0266199 1.65059)
(-0.00691414 0.0258077 1.63874)
(-0.0110364 0.024254 1.61533)
(-0.0145021 0.0220747 1.58103)
(-0.0170886 0.0194606 1.53644)
(0.0176589 0.0200801 1.63405)
(0.0148021 0.0220098 1.67842)
(0.0111402 0.0236646 1.71127)
(0.00692697 0.0248262 1.73337)
(0.00235067 0.0254271 1.74447)
(-0.002351 0.0254271 1.74447)
(-0.00692729 0.0248262 1.73337)
(-0.0111405 0.0236646 1.71127)
(-0.0148024 0.0220098 1.67842)
(-0.0176592 0.0200801 1.63405)
(1.21464e-05 1.49403e-05 0.12252)
(8.25594e-06 2.04345e-05 0.128597)
(4.61811e-06 2.40406e-05 0.133502)
(3.40505e-06 2.61063e-05 0.136947)
(1.14037e-06 2.7306e-05 0.138722)
(-1.15193e-06 2.73051e-05 0.138722)
(-3.41627e-06 2.61037e-05 0.136947)
(-4.62858e-06 2.40365e-05 0.133502)
(-8.26565e-06 2.04289e-05 0.128597)
(-1.21544e-05 1.49337e-05 0.12252)
(0.000359681 0.000420282 0.355525)
(0.000314001 0.000524647 0.37216)
(0.000243205 0.000615695 0.385571)
(0.000156997 0.000682973 0.394976)
(5.41385e-05 0.000719533 0.399821)
(-5.41774e-05 0.00071953 0.399821)
(-0.000157035 0.000682966 0.394976)
(-0.00024324 0.000615683 0.385571)
(-0.000314033 0.000524632 0.37216)
(-0.000359707 0.000420264 0.355525)
(0.00107457 0.00125029 0.573194)
(0.000947803 0.00154651 0.598759)
(0.000741928 0.00181001 0.619306)
(0.000477636 0.00200683 0.633689)
(0.000164809 0.00211338 0.641091)
(-0.000164878 0.00211337 0.64109)
(-0.000477702 0.00200682 0.633689)
(-0.000741989 0.00181 0.619305)
(-0.000947858 0.00154648 0.598759)
(-0.00107462 0.00125026 0.573193)
(0.0021074 0.00244556 0.775126)
(0.00186082 0.00299844 0.807985)
(0.00145927 0.00349256 0.834275)
(0.000937515 0.00386171 0.852641)
(0.000323327 0.00406099 0.86208)
(-0.000323427 0.00406098 0.86208)
(-0.000937611 0.0038617 0.852641)
(-0.00145936 0.00349253 0.834275)
(-0.0018609 0.00299841 0.807985)
(-0.00210747 0.00244553 0.775125)
(0.00333766 0.0038616 0.960997)
(0.00293942 0.00468735 0.99952)
(0.00230159 0.00542417 1.03017)
(0.0014748 0.00597277 1.05153)
(0.000508057 0.00626792 1.06249)
(-0.000508189 0.00626792 1.06249)
(-0.00147493 0.00597276 1.05153)
(-0.00230171 0.00542415 1.03017)
(-0.00293953 0.00468732 0.999519)
(-0.00333775 0.00386157 0.960996)
(0.00462862 0.00533602 1.13056)
(0.00405655 0.00640147 1.17314)
(0.0031653 0.00734663 1.2068)
(0.00202153 0.00804648 1.23019)
(0.0006953 0.00842146 1.24218)
(-0.000695464 0.00842146 1.24218)
(-0.00202169 0.00804647 1.23019)
(-0.00316545 0.00734661 1.2068)
(-0.00405668 0.00640144 1.17314)
(-0.00462874 0.00533599 1.13056)
(0.00584239 0.0067067 1.28361)
(0.0050867 0.00793533 1.3287)
(0.00394984 0.00901486 1.36411)
(0.00251247 0.00980847 1.38863)
(0.000862437 0.0102316 1.40117)
(-0.000862631 0.0102316 1.40117)
(-0.00251266 0.00980846 1.38863)
(-0.00395002 0.00901484 1.36411)
(-0.00508685 0.0079353 1.3287)
(-0.00584253 0.00670666 1.28361)
(0.00685309 0.00782506 1.41993)
(0.00591939 0.00910862 1.46612)
(0.00456878 0.0102212 1.50213)
(0.00289236 0.0110314 1.52698)
(0.000990429 0.0114608 1.53964)
(-0.000990651 0.0114608 1.53964)
(-0.00289257 0.0110314 1.52698)
(-0.00456898 0.0102212 1.50213)
(-0.00591957 0.0091086 1.46612)
(-0.00685324 0.00782504 1.41993)
(0.00756953 0.00857878 1.53915)
(0.00647674 0.00979563 1.58539)
(0.00496064 0.0108218 1.62109)
(0.00312156 0.01156 1.64552)
(0.00106561 0.0119479 1.6579)
(-0.00106585 0.0119479 1.6579)
(-0.0031218 0.01156 1.64552)
(-0.00496086 0.0108218 1.62109)
(-0.00647694 0.00979562 1.58539)
(-0.0075697 0.00857876 1.53915)
(0.00794541 0.00900032 1.64066)
(0.0067078 0.00992982 1.68705)
(0.0050779 0.0107255 1.72152)
(0.00316999 0.0112874 1.74477)
(0.00107779 0.0115791 1.75647)
(-0.00107805 0.0115791 1.75647)
(-0.00317024 0.0112874 1.74477)
(-0.00507813 0.0107255 1.72151)
(-0.00670802 0.00992981 1.68705)
(-0.0079456 0.00900032 1.64065)
(7.68365e-06 1.22467e-05 0.122127)
(3.15936e-06 1.5979e-05 0.128177)
(5.92611e-07 1.70777e-05 0.133056)
(1.22659e-07 1.70928e-05 0.136481)
(-4.14034e-08 1.69973e-05 0.138246)
(3.28674e-08 1.69966e-05 0.138246)
(-1.30936e-07 1.70909e-05 0.136481)
(-6.00332e-07 1.70746e-05 0.133056)
(-3.16662e-06 1.59748e-05 0.128177)
(-7.68958e-06 1.22417e-05 0.122127)
(0.000137749 0.000167445 0.35424)
(0.000114117 0.000209381 0.370797)
(8.54903e-05 0.000242371 0.384135)
(5.42252e-05 0.000265585 0.393486)
(1.85355e-05 0.000277929 0.398303)
(-1.85644e-05 0.000277927 0.398303)
(-5.4253e-05 0.00026558 0.393486)
(-8.55163e-05 0.000242362 0.384135)
(-0.000114141 0.000209369 0.370797)
(-0.000137769 0.000167431 0.354239)
(0.000414505 0.000490563 0.571128)
(0.000357866 0.000608673 0.596595)
(0.000276548 0.000709272 0.617051)
(0.000176854 0.000783144 0.63137)
(6.0829e-05 0.000822836 0.638738)
(-6.088e-05 0.000822833 0.638738)
(-0.000176903 0.000783136 0.631369)
(-0.000276594 0.000709259 0.617051)
(-0.000357908 0.000608655 0.596595)
(-0.00041454 0.000490542 0.571128)
(0.000825193 0.000966456 0.772579)
(0.000721119 0.00119006 0.805371)
(0.000562247 0.00138546 0.831599)
(0.000360253 0.00153045 0.849923)
(0.000124091 0.00160852 0.859342)
(-0.000124165 0.00160852 0.859342)
(-0.000360326 0.00153044 0.849923)
(-0.000562314 0.00138545 0.831599)
(-0.00072118 0.00119004 0.80537)
(-0.000825245 0.000966431 0.772578)
(0.00132986 0.00154735 0.958389)
(0.00116538 0.00188797 0.996932)
(0.000910438 0.00218813 1.0276)
(0.000583004 0.00241113 1.04898)
(0.000200791 0.00253107 1.05995)
(-0.00020089 0.00253106 1.05995)
(-0.000583099 0.00241112 1.04898)
(-0.000910527 0.00218811 1.0276)
(-0.00116546 0.00188795 0.996932)
(-0.00132993 0.00154732 0.958388)
(0.00187674 0.00217191 1.12836)
(0.0016417 0.0026207 1.17111)
(0.0012807 0.003016 1.20491)
(0.000818345 0.00330879 1.22841)
(0.000281557 0.0034658 1.24046)
(-0.00028168 0.0034658 1.24046)
(-0.000818464 0.00330878 1.22841)
(-0.00128081 0.00301598 1.20491)
(-0.0016418 0.00262067 1.1711)
(-0.00187682 0.00217188 1.12836)
(0.0024083 0.00277246 1.2823)
(0.00209689 0.00330078 1.32773)
(0.00162985 0.0037632 1.36343)
(0.00103801 0.00410369 1.38818)
(0.000356541 0.0042855 1.40084)
(-0.000356687 0.0042855 1.40084)
(-0.00103815 0.00410368 1.38818)
(-0.00162998 0.00376318 1.36343)
(-0.00209701 0.00330075 1.32773)
(-0.0024084 0.00277243 1.2823)
(0.00286785 0.0032819 1.41991)
(0.0024803 0.00384501 1.46663)
(0.0019177 0.00433234 1.5031)
(0.00121602 0.00468801 1.52829)
(0.000416751 0.00487679 1.54113)
(-0.000416917 0.00487679 1.54113)
(-0.00121619 0.004688 1.52828)
(-0.00191785 0.00433233 1.5031)
(-0.00248044 0.003845 1.46663)
(-0.00286797 0.00328188 1.41991)
(0.00321072 0.00364489 1.54073)
(0.00275281 0.00418956 1.58769)
(0.00211295 0.00464897 1.624)
(0.00133203 0.00498013 1.64888)
(0.000455128 0.00515439 1.6615)
(-0.000455312 0.00515439 1.6615)
(-0.00133221 0.00498013 1.64888)
(-0.00211311 0.00464897 1.624)
(-0.00275296 0.00418955 1.58769)
(-0.00321085 0.00364488 1.54073)
(0.00341041 0.00386873 1.64399)
(0.00288558 0.00429598 1.6913)
(0.0021896 0.00466012 1.7265)
(0.00136946 0.00491773 1.75029)
(0.000466034 0.00505166 1.76226)
(-0.00046623 0.00505166 1.76226)
(-0.00136965 0.00491773 1.75029)
(-0.00218978 0.00466012 1.7265)
(-0.00288574 0.00429598 1.69129)
(-0.00341056 0.00386872 1.64399)
(-4.65972e-07 1.51509e-07 0.121952)
(-1.48972e-06 6.2936e-07 0.127993)
(-1.67377e-06 4.49726e-07 0.132864)
(-1.08979e-06 1.33057e-07 0.136284)
(-3.94953e-07 -4.67595e-08 0.138046)
(3.88917e-07 -4.72091e-08 0.138046)
(1.08392e-06 1.31709e-07 0.136284)
(1.66832e-06 4.47589e-07 0.132864)
(1.48457e-06 6.2642e-07 0.127993)
(4.61801e-07 1.48006e-07 0.121952)
(3.86676e-05 4.65433e-05 0.353678)
(3.17544e-05 5.9157e-05 0.370207)
(2.3763e-05 6.91148e-05 0.383519)
(1.51735e-05 7.62683e-05 0.392853)
(5.19434e-06 8.01242e-05 0.39766)
(-5.21485e-06 8.01229e-05 0.39766)
(-1.51933e-05 7.62645e-05 0.392853)
(-2.37815e-05 6.91087e-05 0.383519)
(-3.17715e-05 5.91487e-05 0.370206)
(-3.86815e-05 4.65334e-05 0.353678)
(0.000132892 0.000156026 0.570212)
(0.000115054 0.000195697 0.595639)
(8.93344e-05 0.000229804 0.61606)
(5.74113e-05 0.000255241 0.630355)
(1.97857e-05 0.000269023 0.637711)
(-1.98222e-05 0.000269021 0.637711)
(-5.74466e-05 0.000255235 0.630355)
(-8.93672e-05 0.000229795 0.61606)
(-0.000115084 0.000195684 0.595639)
(-0.000132917 0.000156012 0.570212)
(0.000281666 0.000327708 0.771411)
(0.000247386 0.000407201 0.80417)
(0.000193952 0.000477308 0.830371)
(0.000124832 0.000530003 0.848678)
(4.30849e-05 0.000558571 0.858088)
(-4.31383e-05 0.000558569 0.858088)
(-0.000124883 0.000529995 0.848678)
(-0.000194 0.000477297 0.830371)
(-0.00024743 0.000407185 0.80417)
(-0.000281703 0.00032769 0.771411)
(0.000472668 0.000546741 0.957128)
(0.000416699 0.00067262 0.995668)
(0.000327451 0.000784554 1.02634)
(0.000210614 0.000868686 1.04772)
(7.26856e-05 0.000914222 1.0587)
(-7.27564e-05 0.000914219 1.0587)
(-0.000210683 0.000868678 1.04772)
(-0.000327515 0.000784541 1.02634)
(-0.000416758 0.000672603 0.995667)
(-0.000472718 0.000546722 0.957127)
(0.000687283 0.000791025 1.1272)
(0.000605186 0.000961919 1.16999)
(0.000474974 0.00111382 1.20384)
(0.000304851 0.00122757 1.22739)
(0.000105105 0.00128894 1.23946)
(-0.000105193 0.00128893 1.23946)
(-0.000304936 0.00122756 1.22739)
(-0.000475055 0.00111381 1.20384)
(-0.000605259 0.000961902 1.16999)
(-0.000687346 0.000791005 1.1272)
(0.000903046 0.00103412 1.28143)
(0.0007918 0.00124033 1.32698)
(0.000619241 0.0014225 1.36279)
(0.000396129 0.00155803 1.38763)
(0.000136349 0.00163081 1.40034)
(-0.000136454 0.0016308 1.40034)
(-0.000396231 0.00155802 1.38763)
(-0.000619337 0.00142249 1.36279)
(-0.000791887 0.00124031 1.32698)
(-0.000903122 0.0010341 1.28143)
(0.00109652 0.0012483 1.41952)
(0.00095524 0.00147286 1.46644)
(0.000743087 0.00166903 1.5031)
(0.000473235 0.00181355 1.52842)
(0.000162514 0.00189065 1.54134)
(-0.000162634 0.00189065 1.54134)
(-0.000473352 0.00181354 1.52842)
(-0.000743197 0.00166903 1.50309)
(-0.00095534 0.00147285 1.46644)
(-0.00109661 0.00124828 1.41952)
(0.00124822 0.00140971 1.54096)
(0.00107788 0.00163137 1.58821)
(0.000832138 0.00181988 1.62477)
(0.000526709 0.00195679 1.64984)
(0.000180302 0.00202914 1.66256)
(-0.000180435 0.00202914 1.66256)
(-0.000526838 0.00195678 1.64984)
(-0.00083226 0.00181988 1.62477)
(-0.00107799 0.00163136 1.58821)
(-0.00124832 0.0014097 1.54096)
(0.00134517 0.00151996 1.64493)
(0.00114516 0.00169858 1.69262)
(0.000873511 0.00185036 1.72814)
(0.000548266 0.00195824 1.75215)
(0.00018688 0.0020145 1.76425)
(-0.000187022 0.0020145 1.76425)
(-0.000548405 0.00195824 1.75215)
(-0.000873643 0.00185035 1.72814)
(-0.00114528 0.00169858 1.69262)
(-0.00134527 0.00151996 1.64493)
(5.06566e-09 7.60286e-07 0.121925)
(-8.43811e-07 1.13818e-06 0.127963)
(-1.04649e-06 9.67245e-07 0.132831)
(-7.59938e-07 6.77207e-07 0.136248)
(-2.8296e-07 4.91863e-07 0.138009)
(2.78844e-07 4.91577e-07 0.138009)
(7.5589e-07 6.76261e-07 0.136248)
(1.04287e-06 9.65752e-07 0.132831)
(8.40429e-07 1.13627e-06 0.127963)
(-7.93074e-09 7.57938e-07 0.121925)
(1.08834e-05 1.43439e-05 0.353548)
(7.64465e-06 1.8488e-05 0.370065)
(5.06784e-06 2.11057e-05 0.383366)
(3.02556e-06 2.27547e-05 0.392692)
(9.95187e-07 2.35876e-05 0.397494)
(-1.00928e-06 2.35868e-05 0.397494)
(-3.03931e-06 2.27518e-05 0.392691)
(-5.08019e-06 2.11012e-05 0.383366)
(-7.6561e-06 1.84826e-05 0.370065)
(-1.0893e-05 1.43372e-05 0.353548)
(4.04926e-05 4.90791e-05 0.569966)
(3.34804e-05 6.22244e-05 0.595376)