/*--------------------------------*- C++ -*----------------------------------*\
| =========                 |                                                 |
| \\      /  F ield         | OpenFOAM: The Open Source CFD Toolbox           |
|  \\    /   O peration     | Version:  2106                                  |
|   \\  /    A nd           | Website:  www.openfoam.com                      |
|    \\/     M anipulation  |                                                 |
\*---------------------------------------------------------------------------*/
FoamFile
{
    version     2.0;
    format      ascii;
    arch        "LSB;label=32;scalar=64";
    class       surfaceScalarField;
    location    "0.99";
    object      phi;
}
// * * * * * * * * * * * * * * * * * * * * * * * * * * * * * * * * * * * * * //

dimensions      [0 3 -1 0 0 0 0];

oriented        oriented;

internalField   nonuniform List<scalar> 
29100
(
0.00118094
0.1504
0.0809201
-6.77524e-10
0.00145321
0.155277
0.0889261
0.00124707
0.158696
0.095614
0.00071022
0.160974
0.100401
4.52674e-10
0.162117
0.102894
-0.000710219
0.162117
0.102894
-0.00124707
0.160974
0.100401
-0.00145321
0.158696
0.095614
-0.00118094
0.155277
0.0889261
0.1504
0.0809201
-8.83338e-10
0.00236448
0.20825
0.155454
-7.72007e-10
0.00328436
0.212835
0.168978
0.00292939
0.215906
0.180035
0.00169463
0.217823
0.187855
4.72255e-10
0.218763
0.191896
-0.00169463
0.218763
0.191896
-0.00292939
0.217823
0.187855
-0.00328436
0.215906
0.180035
-0.00236448
0.212835
0.168978
0.20825
0.155454
-2.17417e-09
0.00301638
0.219393
0.184677
-9.25091e-10
0.00426645
0.222319
0.1997
0.00382981
0.224226
0.211793
0.00221819
0.225267
0.220269
3.46871e-10
0.22575
0.224625
-0.00221819
0.22575
0.224625
-0.00382981
0.225267
0.220269
-0.00426645
0.224226
0.211793
-0.00301638
0.222319
0.1997
0.219393
0.184677
-3.29369e-09
0.00344521
0.206176
0.191776
-1.09269e-09
0.00480669
0.207435
0.206936
0.00430574
0.208203
0.218987
0.00248941
0.208443
0.227373
8.31225e-11
0.208514
0.231665
-0.00248941
0.208514
0.231665
-0.00430574
0.208443
0.227373
-0.00480669
0.208203
0.218987
-0.00344521
0.207435
0.206936
0.206176
0.191776
-4.31737e-09
0.00367459
0.181265
0.186409
-1.14057e-09
0.00505748
0.181242
0.201204
0.00451814
0.181143
0.212847
0.00260881
0.180815
0.220901
-2.46375e-10
0.180599
0.22501
-0.00260881
0.180599
0.22501
-0.00451815
0.180815
0.220901
-0.00505748
0.181143
0.212847
-0.0036746
0.181242
0.201204
0.181265
0.186409
-5.32137e-09
0.00375962
0.151938
0.173908
-1.12689e-09
0.00512356
0.151064
0.188187
0.00456771
0.150402
0.199332
0.00263595
0.149739
0.207002
-6.11029e-10
0.149363
0.210905
-0.00263595
0.149363
0.210905
-0.00456772
0.149739
0.207002
-0.00512356
0.150402
0.199332
-0.00375962
0.151064
0.188187
0.151938
0.173908
-6.34722e-09
0.00376777
0.122275
0.157404
-1.1175e-09
0.00509871
0.12092
0.171166
0.00453871
0.119944
0.181837
0.00261906
0.119138
0.189147
-1.13202e-09
0.118703
0.192858
-0.00261906
0.118703
0.192858
-0.00453871
0.119138
0.189147
-0.00509871
0.119944
0.181837
-0.00376778
0.12092
0.171166
0.122275
0.157404
-7.5137e-09
0.0037336
0.09449
0.138728
-1.07554e-09
0.00504514
0.0929124
0.152029
0.00449089
0.091819
0.162285
0.00259265
0.0910147
0.16928
-2.06436e-09
0.0905986
0.172822
-0.00259266
0.0905986
0.172822
-0.00449089
0.0910147
0.16928
-0.00504514
0.091819
0.162285
-0.00373361
0.0929124
0.152029
0.09449
0.138728
-8.92763e-09
0.00370214
0.0696978
0.118934
-9.48933e-10
0.00502727
0.0680619
0.131837
0.00447641
0.0670229
0.141739
0.0025835
0.0663354
0.148462
-3.63579e-09
0.065995
0.151859
-0.00258351
0.065995
0.151859
-0.00447642
0.0663354
0.148462
-0.00502728
0.0670229
0.141739
-0.00370215
0.0680619
0.131837
0.0696978
0.118934
-1.06432e-08
0.00392254
0.0986241
-1.12294e-09
0.0481632
0.00521715
0.11119
0.046869
0.00458907
0.120782
0.0460472
0.00262859
0.127267
0.0455501
-5.83488e-09
0.130536
0.0453064
-0.0026286
0.130536
0.0453064
-0.00458908
0.127267
0.0455501
-0.00521716
0.120782
0.0460472
-0.00392255
0.11119
0.046869
0.0986241
-1.23717e-08
0.0481632
-0.000240343
0.0365302
0.0446302
-4.09828e-10
-0.000242384
0.0397048
0.0492234
-0.000170347
0.0423874
0.0531546
-8.48218e-05
0.0443058
0.0560097
1.06921e-11
0.0452983
0.057511
8.48217e-05
0.0452983
0.057511
0.000170346
0.0443058
0.0560097
0.000242383
0.0423874
0.0531546
0.000240342
0.0397048
0.0492234
0.0365302
0.0446302
-1.22982e-09
6.499e-05
0.0807036
0.111216
-4.63288e-10
0.000253403
0.086495
0.121999
0.000302707
0.0913112
0.131062
0.000202743
0.0946858
0.137575
-8.84876e-10
0.0964193
0.140978
-0.000202745
0.0964193
0.140978
-0.000302709
0.0946858
0.137575
-0.000253405
0.0913112
0.131062
-6.49928e-05
0.086495
0.121999
0.0807036
0.111216
-3.44577e-09
0.000614987
0.112216
0.152549
-5.09898e-10
0.00103343
0.118929
0.166848
0.0010111
0.124438
0.178688
0.000617933
0.128223
0.187125
-2.18782e-09
0.130153
0.191509
-0.000617937
0.130153
0.191509
-0.00101111
0.128223
0.187125
-0.00103344
0.124438
0.178688
-0.000614992
0.118929
0.166848
0.112216
0.152549
-5.58765e-09
0.00123448
0.128729
0.174029
-5.1607e-10
0.00187796
0.135125
0.190096
0.00176706
0.140309
0.203227
0.00105537
0.143796
0.212512
-3.66963e-09
0.145557
0.217316
-0.00105538
0.145557
0.217316
-0.00176707
0.143796
0.212512
-0.00187797
0.140309
0.203227
-0.00123448
0.135125
0.190096
0.128729
0.174029
-7.65715e-09
0.00184036
0.131972
0.181325
-5.25702e-10
0.00268067
0.137364
0.198125
0.00247748
0.141664
0.211694
0.00146353
0.14449
0.221222
-5.30819e-09
0.145899
0.226132
-0.00146354
0.145899
0.226132
-0.00247749
0.14449
0.221222
-0.00268068
0.141664
0.211694
-0.00184037
0.137364
0.198125
0.131972
0.181325
-9.68313e-09
0.00238866
0.124976
0.178516
-5.38295e-10
0.00339495
0.12909
0.195455
0.0031052
0.132296
0.20899
0.00182297
0.134341
0.218433
-7.04899e-09
0.135346
0.223281
-0.00182298
0.135346
0.223281
-0.00310521
0.134341
0.218433
-0.00339496
0.132296
0.20899
-0.00238867
0.12909
0.195455
0.124976
0.178516
-1.16692e-08
0.00285622
0.11096
0.168563
-5.92674e-10
0.00400437
0.113791
0.185316
0.00364165
0.115917
0.198579
0.00213069
0.117225
0.207774
-8.82892e-09
0.117856
0.212479
-0.00213071
0.117856
0.212479
-0.00364166
0.117225
0.207774
-0.00400438
0.115917
0.198579
-0.00285623
0.113791
0.185316
0.11096
0.168563
-1.35965e-08
0.00323723
0.0928399
0.153611
-6.91922e-10
0.00451857
0.0945164
0.170022
0.00410051
0.0957144
0.182906
0.00239545
0.0964231
0.191787
-1.07176e-08
0.0967586
0.196315
-0.00239548
0.0967586
0.196315
-0.00410053
0.0964231
0.191787
-0.00451858
0.0957144
0.182906
-0.00323724
0.0945164
0.170022
0.0928399
0.153611
-1.53792e-08
0.00356746
0.0730115
0.135195
-8.23032e-10
0.0049867
0.0737257
0.151209
0.00451953
0.0742381
0.163682
0.00263606
0.0745375
0.172231
-1.275e-08
0.0746793
0.176574
-0.00263608
0.0746793
0.176574
-0.00451955
0.0745375
0.172231
-0.00498672
0.0742381
0.163682
-0.00356748
0.0737257
0.151209
0.0730115
0.135195
-1.68543e-08
0.00399395
0.114407
-9.70683e-10
0.0532348
0.00553296
0.130032
0.0533443
0.00497545
0.142096
0.0534814
0.00288588
0.150314
0.0535795
-1.48346e-08
0.154476
0.0536251
-0.00288591
0.154476
0.0536251
-0.00497548
0.150314
0.0535795
-0.00553299
0.142096
0.0534814
-0.00399397
0.130032
0.0533443
0.114407
-1.78376e-08
0.0532348
3.93113e-05
0.0099983
0.0345926
-1.9611e-10
3.52863e-05
0.0110324
0.038195
2.97396e-05
0.01191
0.0412501
1.6485e-05
0.0125616
0.0434613
-4.43551e-10
0.0129049
0.0446226
-1.64858e-05
0.0129049
0.0446226
-2.97405e-05
0.0125616
0.0434613
-3.52872e-05
0.01191
0.0412501
-3.93124e-05
0.0110324
0.038195
0.0099983
0.0345926
-1.27292e-09
0.000281565
0.0303188
0.0906137
-1.43268e-10
0.000382409
0.0330301
0.0999007
0.000341804
0.0352989
0.107714
0.000199393
0.0369353
0.113344
-2.18386e-09
0.0377902
0.116292
-0.000199397
0.0377902
0.116292
-0.000341808
0.0369353
0.113344
-0.000382413
0.0352989
0.107714
-0.000281568
0.0330301
0.0999007
0.0303188
0.0906137
-3.90775e-09
0.000601393
0.0512415
0.131025
-2.22474e-10
0.000853395
0.0552471
0.144379
0.000773187
0.0585548
0.155513
0.000453209
0.0608876
0.163492
-4.32628e-09
0.062096
0.167657
-0.000453217
0.062096
0.167657
-0.000773195
0.0608876
0.163492
-0.000853402
0.0585548
0.155513
-0.0006014
0.0552471
0.144379
0.0512415
0.131025
-6.60427e-09
0.000969072
0.0670664
0.157235
-2.99432e-10
0.00139082
0.0716498
0.173272
0.00127036
0.0753889
0.186513
0.000746086
0.0779747
0.195949
-6.71033e-09
0.079302
0.200856
-0.000746099
0.079302
0.200856
-0.00127038
0.0779747
0.195949
-0.00139083
0.0753889
0.186513
-0.000969083
0.0716498
0.173272
0.0670664
0.157235
-9.26258e-09
0.00135949
0.075795
0.171236
-3.31246e-10
0.00194741
0.0802966
0.188891
0.00178319
0.0839206
0.203327
0.00104754
0.0863789
0.213553
-9.23329e-09
0.0876283
0.218853
-0.00104755
0.0876283
0.218853
-0.00178321
0.0863789
0.213553
-0.00194742
0.0839206
0.203327
-0.00135951
0.0802966
0.188891
0.075795
0.171236
-1.18376e-08
0.00175225
0.0774421
0.175116
-3.80203e-10
0.00249305
0.0813941
0.193616
0.00228181
0.0845213
0.208601
0.00133971
0.0866001
0.219154
-1.18151e-08
0.0876451
0.224604
-0.00133973
0.0876451
0.224604
-0.00228183
0.0866001
0.219154
-0.00249307
0.0845213
0.208601
-0.00175226
0.0813941
0.193616
0.0774421
0.175116
-1.42964e-08
0.00212402
0.0730788
0.170802
-5.27129e-10
0.00300348
0.0762179
0.189613
0.00274625
0.0786447
0.204713
0.00161146
0.0802243
0.215285
-1.43536e-08
0.0810095
0.220726
-0.00161149
0.0810095
0.220726
-0.00274627
0.0802243
0.215285
-0.0030035
0.0786447
0.204713
-0.00212404
0.0762179
0.189613
0.0730788
0.170802
-1.66082e-08
0.00245867
0.0642568
0.159974
-7.19641e-10
0.00346861
0.0664852
0.178745
0.00316987
0.0681649
0.193685
0.00185915
0.0692387
0.204084
-1.67354e-08
0.0697675
0.209416
-0.00185919
0.0697675
0.209416
-0.0031699
0.0692387
0.204084
-0.00346864
0.0681649
0.193685
-0.00245869
0.0664852
0.178745
0.0642568
0.159974
-1.86999e-08
0.00276871
0.052638
0.144045
-9.47076e-10
0.00390428
0.0539899
0.162568
0.00356234
0.0550028
0.177186
0.00208639
0.055648
0.187298
-1.88771e-08
0.0559653
0.192463
-0.00208643
0.0559653
0.192463
-0.00356238
0.055648
0.187298
-0.00390431
0.0550028
0.177186
-0.00276874
0.0539899
0.162568
0.052638
0.144045
-2.04769e-08
0.00311216
0.124183
-1.24096e-09
0.0397501
0.00435412
0.142375
0.0404048
0.00395027
0.156573
0.0409294
0.00230423
0.166327
0.0412817
-2.06708e-08
0.171289
0.0414558
-0.00230427
0.171289
0.0414558
-0.00395031
0.166327
0.0412817
-0.00435416
0.156573
0.0409294
-0.00311218
0.142375
0.0404048
0.124183
-2.18334e-08
0.0397501
-3.16247e-05
0.00408518
0.0305391
-1.46599e-10
-4.51599e-05
0.00449855
0.0337099
-3.63974e-05
0.00484931
0.036392
-2.00608e-05
0.00511011
0.0383349
-6.15231e-10
0.00524674
0.0393558
2.00596e-05
0.00524674
0.0393558
3.63962e-05
0.00511011
0.0383349
4.51587e-05
0.00484931
0.036392
3.16235e-05
0.00449855
0.0337099
0.00408518
0.0305391
-1.24142e-09
1.02328e-05
0.0126868
0.0820019
-2.23453e-10
1.76404e-05
0.0139019
0.0904899
2.20526e-05
0.0149316
0.0976272
1.57105e-05
0.0156821
0.102778
-2.65666e-09
0.0160757
0.105478
-1.57156e-05
0.0160757
0.105478
-2.20575e-05
0.0156821
0.102778
-1.76449e-05
0.0149316
0.0976272
-1.02367e-05
0.0139019
0.0904899
0.0126868
0.0820019
-3.9501e-09
0.000124065
0.022586
0.121002
-2.52203e-10
0.000188135
0.0246045
0.133612
0.000180663
0.0263036
0.144148
0.000110067
0.0275234
0.151722
-5.11788e-09
0.0281602
0.155682
-0.000110077
0.0281602
0.155682
-0.000180673
0.0275234
0.151722
-0.000188143
0.0263036
0.144148
-0.000124073
0.0246045
0.133612
0.022586
0.121002
-6.84896e-09
0.000295241
0.0313191
0.148207
-2.8702e-10
0.000440236
0.0338907
0.163841
0.000415021
0.0360346
0.176807
0.000248841
0.0375509
0.186087
-7.84254e-09
0.0383377
0.190927
-0.000248856
0.0383377
0.190927
-0.000415035
0.0375509
0.186087
-0.000440249
0.0360346
0.176807
-0.000295252
0.0338907
0.163841
0.0313191
0.148207
-9.75354e-09
0.000508104
0.0373601
0.164687
-3.62319e-10
0.000746894
0.040143
0.1824
0.000698655
0.0424334
0.196976
0.000416194
0.0440288
0.207358
-1.07103e-08
0.0448504
0.212757
-0.000416215
0.0448504
0.212757
-0.000698675
0.0440288
0.207358
-0.000746911
0.0424334
0.196976
-0.000508119
0.040143
0.1824
0.0373601
0.164687
-1.258e-08
0.000746581
0.0400541
0.171676
-4.85997e-10
0.001084
0.0427261
0.190696
0.00100853
0.044888
0.206222
0.000598474
0.0463697
0.217223
-1.3602e-08
0.0471261
0.222927
-0.000598501
0.0471261
0.222927
-0.00100855
0.0463697
0.217223
-0.00108402
0.044888
0.206222
-0.000746599
0.0427261
0.190696
0.0400541
0.171676
-1.52573e-08
0.000993336
0.039418
0.170445
-6.79699e-10
0.00142975
0.0417331
0.19017
0.00132528
0.0435656
0.20614
0.000784468
0.0448003
0.217395
-1.63876e-08
0.0454251
0.223212
-0.0007845
0.0454251
0.223212
-0.00132531
0.0448004
0.217395
-0.00142978
0.0435656
0.20614
-0.000993358
0.0417331
0.19017
0.039418
0.170445
-1.77069e-08
0.00123535
0.0359297
0.162227
-9.21536e-10
0.00177076
0.0377355
0.182207
0.00163712
0.0391317
0.198252
0.00096714
0.0400579
0.209496
-1.89346e-08
0.0405227
0.215286
-0.000967177
0.0405227
0.215286
-0.00163715
0.0400579
0.209496
-0.00177079
0.0391317
0.198252
-0.00123537
0.0377355
0.182207
0.0359297
0.162227
-1.98325e-08
0.00147676
0.030333
0.148165
-1.23656e-09
0.00210936
0.0315771
0.168094
0.00194258
0.032524
0.183961
0.00114433
0.0331463
0.195007
-2.10876e-08
0.0334571
0.200673
-0.00114437
0.0334571
0.200673
-0.00194261
0.0331463
0.195007
-0.00210939
0.032524
0.183961
-0.00147679
0.0315771
0.168094
0.030333
0.148165
-2.15202e-08
0.00173206
0.129299
-1.61431e-09
0.0234846
0.00245589
0.149025
0.0242038
0.00224882
0.164534
0.02477
0.00131911
0.175252
0.0251512
-2.2683e-08
0.180724
0.0253416
-0.00131916
0.180724
0.0253416
-0.00224886
0.175252
0.0251512
-0.00245593
0.164534
0.02477
-0.00173209
0.149025
0.0242038
0.129299
-2.2679e-08
0.0234846
2.10992e-06
0.00133744
0.0291995
-1.16551e-10
-2.70358e-07
0.00148507
0.0322273
1.32428e-07
0.00161344
0.0347782
1.471e-07
0.00171143
0.0366234
-5.99313e-10
0.0017637
0.0375922
-1.48342e-07
0.0017637
0.0375922
-1.33608e-07
0.00171144
0.0366234
2.69197e-07
0.00161344
0.0347782
-2.11105e-06
0.00148507
0.0322273
0.00133744
0.0291995
-1.14141e-09
3.09428e-05
0.00479909
0.0785093
-1.80463e-10
4.00171e-05
0.00529693
0.086669
3.68642e-05
0.00572463
0.0935192
2.18699e-05
0.00604236
0.0984623
-2.52877e-09
0.00621071
0.101053
-2.1875e-05
0.00621071
0.101053
-3.6869e-05
0.00604236
0.0984623
-4.00216e-05
0.00572463
0.0935192
-3.09468e-05
0.00529693
0.086669
0.00479909
0.0785093
-3.74975e-09
8.63443e-05
0.00926005
0.116455
-2.79787e-10
0.000122402
0.0101643
0.128709
0.000112992
0.0109342
0.138948
6.70721e-05
0.011496
0.146314
-4.93186e-09
0.011792
0.150168
-6.70818e-05
0.011792
0.150168
-0.000113001
0.011496
0.146314
-0.00012241
0.0109342
0.138948
-8.63515e-05
0.0101643
0.128709
0.00926005
0.116455
-6.47843e-09
0.00016807
0.0136092
0.14369
-3.75774e-10
0.000244063
0.0148497
0.159079
0.000226687
0.015896
0.171863
0.000134631
0.0166481
0.181027
-7.6229e-09
0.0170419
0.185812
-0.000134646
0.0170419
0.185812
-0.000226701
0.0166481
0.181027
-0.000244076
0.015896
0.171863
-0.00016808
0.0148497
0.159079
0.0136092
0.14369
-9.25202e-09
0.000273153
0.0170109
0.161012
-4.94866e-10
0.000398159
0.0184429
0.178681
0.000370565
0.0196368
0.193263
0.000220026
0.0204825
0.203674
-1.04486e-08
0.0209223
0.209096
-0.000220046
0.0209223
0.209096
-0.000370584
0.0204825
0.203674
-0.000398176
0.0196368
0.193263
-0.000273168
0.0184429
0.178681
0.0170109
0.161012
-1.19663e-08
0.000396203
0.0189651
0.169325
-6.61926e-10
0.000575664
0.0204213
0.188538
0.000535575
0.0216174
0.204281
0.000317751
0.0224522
0.215471
-1.32829e-08
0.0228828
0.221284
-0.000317777
0.0228828
0.221284
-0.000535599
0.0224522
0.215471
-0.000575685
0.0216174
0.204281
-0.00039622
0.0204213
0.188538
0.0189651
0.169325
-1.45338e-08
0.000529712
0.0192956
0.169585
-9.0051e-10
0.000766298
0.0206252
0.189729
0.000712092
0.0216971
0.206114
0.000422053
0.0224338
0.217703
-1.59925e-08
0.0228106
0.223706
-0.000422084
0.0228106
0.223706
-0.000712121
0.0224338
0.217703
-0.000766323
0.0216971
0.206114
-0.000529733
0.0206252
0.189729
0.0192956
0.169585
-1.68689e-08
0.000666921
0.0180966
0.162759
-1.19482e-09
0.00096192
0.0191885
0.183349
0.000892321
0.0200511
0.199968
0.000528124
0.020635
0.211659
-1.84384e-08
0.0209312
0.217693
-0.000528159
0.0209312
0.217693
-0.000892354
0.020635
0.211659
-0.000961949
0.0200511
0.199968
-0.000666944
0.0191886
0.183349
0.0180966
0.162759
-1.88742e-08
0.0008078
0.0156583
0.149796
-1.55674e-09
0.00115958
0.0164561
0.170475
0.0010714
0.0170742
0.187026
0.000632426
0.0174873
0.198594
-2.04613e-08
0.0176953
0.204541
-0.000632465
0.0176953
0.204541
-0.00107143
0.0174873
0.198594
-0.00115961
0.0170742
0.187026
-0.000807825
0.0164561
0.170475
0.0156583
0.149796
-2.04342e-08
0.000946959
0.131611
-1.93554e-09
0.0123991
0.00135143
0.152185
0.0128913
0.00124395
0.168438
0.013278
0.000732106
0.17971
0.0135403
-2.19085e-08
0.185479
0.0136724
-0.000732149
0.185479
0.0136724
-0.00124399
0.17971
0.0135403
-0.00135146
0.168438
0.013278
-0.000946986
0.152185
0.0128913
0.131611
-2.14905e-08
0.0123992
-5.57735e-06
0.000584051
0.028621
-9.8316e-11
-8.31389e-06
0.000642523
0.0315875
-6.58377e-06
0.000691987
0.0340845
-3.62674e-06
0.000729588
0.0358909
-5.0413e-10
0.000749353
0.0368392
3.62565e-06
0.000749353
0.0368392
6.58273e-06
0.000729588
0.0358909
8.31293e-06
0.000691987
0.0340845
5.57634e-06
0.000642524
0.0315875
0.000584051
0.028621
-9.89401e-10
-8.41576e-07
0.00203495
0.0770593
-1.52988e-10
-1.86137e-06
0.00224182
0.0850707
-5.94086e-07
0.00241809
0.0917918
1.91286e-07
0.00254912
0.096642
-2.11849e-09
0.00261854
0.0991844
-1.95286e-07
0.00261854
0.0991844
5.90065e-07
0.00254912
0.096642
1.85724e-06
0.00241809
0.0917918
8.38097e-07
0.00224182
0.0850707
0.00203496
0.0770593
-3.27161e-09
1.78106e-05
0.00395821
0.114514
-2.63037e-10
2.63522e-05
0.00435307
0.126589
2.5847e-05
0.00468958
0.136677
1.59744e-05
0.00493648
0.143937
-4.23833e-09
0.00506696
0.147736
-1.59829e-05
0.00506696
0.147736
-2.58549e-05
0.00493648
0.143937
-2.63593e-05
0.00468958
0.136677
-1.78169e-05
0.00435308
0.126589
0.00395822
0.114514
-5.68581e-09
5.10447e-05
0.00593259
0.141664
-3.99451e-10
7.59916e-05
0.00650121
0.156906
7.23397e-05
0.00698325
0.169573
4.36744e-05
0.00733264
0.17866
-6.63232e-09
0.00751644
0.183406
-4.36874e-05
0.00751644
0.183406
-7.23518e-05
0.00733265
0.17866
-7.60024e-05
0.00698325
0.169573
-5.1054e-05
0.00650122
0.156906
0.00593259
0.141664
-8.15392e-09
9.76296e-05
0.00758565
0.159262
-5.66363e-10
0.000144624
0.00827273
0.176863
0.000136567
0.00884977
0.191404
8.18712e-05
0.00926281
0.201798
-9.16941e-09
0.00947879
0.207216
-8.18891e-05
0.00947879
0.207216
-0.000136584
0.00926282
0.201798
-0.000144638
0.00884978
0.191404
-9.76419e-05
0.00827274
0.176863
0.00758565
0.159262
-1.05778e-08
0.000155422
0.00865134
0.168104
-7.76798e-10
0.000228626
0.00938061
0.187357
0.000214931
0.00998498
0.20316
0.000128387
0.0104118
0.214409
-1.17221e-08
0.0106334
0.220258
-0.000128409
0.0106334
0.220258
-0.000214952
0.0104118
0.214409
-0.000228644
0.00998499
0.20316
-0.000155437
0.00938062
0.187357
0.00865135
0.168104
-1.28729e-08
0.000221178
0.00899272
0.169022
-1.05682e-09
0.000323387
0.0096862
0.189322
0.000303045
0.0102511
0.205868
0.000180575
0.0106444
0.217593
-1.41608e-08
0.010847
0.223673
-0.000180603
0.010847
0.223673
-0.000303071
0.0106444
0.217593
-0.000323409
0.0102511
0.205868
-0.000221196
0.0096862
0.189322
0.00899273
0.169022
-1.49566e-08
0.000291859
0.00859961
0.16286
-1.38645e-09
0.000424946
0.0091925
0.18371
0.000396947
0.00966632
0.200581
0.000235946
0.00999129
0.212473
-1.63564e-08
0.0101573
0.218619
-0.000235977
0.0101573
0.218619
-0.000396976
0.0099913
0.212473
-0.000424971
0.00966633
0.200581
-0.00029188
0.00919251
0.18371
0.00859962
0.16286
-1.6743e-08
0.000367627
0.00756815
0.15046
-1.74946e-09
0.000531574
0.00802082
0.171483
0.000493796
0.00837515
0.188355
0.000292458
0.00861465
0.200172
-1.81683e-08
0.00873598
0.206255
-0.000292494
0.00873598
0.206255
-0.000493829
0.00861465
0.200172
-0.000531602
0.00837515
0.188355
-0.000367649
0.00802083
0.171483
0.00756815
0.15046
-1.81333e-08
0.000443581
0.132657
-2.09682e-09
0.00607853
0.000637634
0.15364
0.0063718
0.00059006
0.170257
0.00660336
0.0003484
0.181805
0.00676136
-1.94638e-08
0.187722
0.00684128
-0.000348438
0.187722
0.00684128
-0.000590094
0.181805
0.00676136
-0.000637663
0.170257
0.00660337
-0.000443605
0.15364
0.00637181
0.132657
-1.90708e-08
0.00607854
-8.45091e-07
0.000190445
0.0284314
-1.04613e-10
-1.6389e-06
0.000210943
0.0313773
-1.191e-06
0.000228777
0.0338552
-6.35509e-07
0.000242775
0.0356476
-4.08072e-10
0.000250243
0.0365884
6.347e-07
0.000250243
0.0365884
1.19019e-06
0.000242775
0.0356476
1.6381e-06
0.000228778
0.0338552
8.44275e-07
0.000210944
0.0313773
0.000190445
0.0284314
-7.93249e-10
1.85764e-06
0.000743285
0.0765046
-2.46542e-10
1.98517e-06
0.000823077
0.0844584
2.15036e-06
0.000892173
0.0911283
1.40839e-06
0.000944456
0.095941
-1.73143e-09
0.000972364
0.0984636
-1.41181e-06
0.000972364
0.0984636
-2.15367e-06
0.000944457
0.095941
-1.98815e-06
0.000892175
0.0911283
-1.8604e-06
0.000823078
0.0844584
0.000743287
0.0765046
-2.65891e-09
1.00153e-05
0.00152829
0.113719
-3.6868e-10
1.40655e-05
0.00168913
0.125719
1.33563e-05
0.00182776
0.135742
8.09279e-06
0.00193082
0.142955
-3.41513e-09
0.00198564
0.146731
-8.09951e-06
0.00198564
0.146731
-1.33627e-05
0.00193082
0.142955
-1.40712e-05
0.00182777
0.135742
-1.00205e-05
0.00168914
0.125719
0.00152829
0.113718
-4.67571e-09
2.42789e-05
0.00237694
0.140791
-4.92387e-10
3.53765e-05
0.00261855
0.155966
3.33235e-05
0.00282543
0.168577
1.9994e-05
0.00297716
0.177627
-5.37522e-09
0.00305749
0.182355
-2.00045e-05
0.00305749
0.182355
-3.33333e-05
0.00297716
0.177627
-3.53853e-05
0.00282544
0.168577
-2.42866e-05
0.00261855
0.155966
0.00237695
0.140791
-6.75408e-09
4.47187e-05
0.00312817
0.158466
-6.45307e-10
6.56773e-05
0.00343089
0.176029
6.1767e-05
0.0036877
0.190546
3.69431e-05
0.00387366
0.200927
-7.49351e-09
0.00397153
0.206339
-3.69577e-05
0.00397153
0.206339
-6.17806e-05
0.00387367
0.200927
-6.56893e-05
0.0036877
0.190546
-4.47289e-05
0.00343089
0.176029
0.00312817
0.158466
-8.80458e-09
7.0771e-05
0.00365451
0.167507
-8.43342e-10
0.00010389
0.00398635
0.186768
9.75756e-05
0.00426433
0.202589
5.82554e-05
0.00446298
0.213859
-9.65124e-09
0.0045668
0.219721
-5.82742e-05
0.0045668
0.219721
-9.7593e-05
0.00446298
0.213859
-0.000103905
0.00426434
0.202589
-7.07836e-05
0.00398636
0.186768
0.00365452
0.167507
-1.07538e-08
0.000101242
0.00387805
0.168698
-1.08957e-09
0.000148219
0.00420301
0.189058
0.00013899
0.00447088
0.205671
8.28515e-05
0.0046596
0.217453
-1.173e-08
0.00475745
0.223565
-8.28744e-05
0.00475745
0.223565
-0.000139011
0.00465961
0.217453
-0.000148237
0.00447089
0.205671
-0.000101257
0.00420302
0.189058
0.00387806
0.168698
-1.2529e-08
0.000134839
0.00377586
0.162828
-1.36097e-09
0.000196818
0.00406162
0.183789
0.000184094
0.00429282
0.200771
0.00010951
0.00445319
0.212754
-1.36163e-08
0.00453559
0.218951
-0.000109537
0.00453559
0.218951
-0.000184118
0.00445319
0.212754
-0.000196839
0.00429282
0.200771
-0.000134856
0.00406163
0.183789
0.00377587
0.162828
-1.40556e-08
0.000171304
0.0033762
0.150688
-1.6646e-09
0.000248259
0.00360095
0.171866
0.000230977
0.00377846
0.188887
0.000136943
0.00389952
0.20082
-1.51877e-08
0.00396114
0.206966
-0.000136972
0.00396114
0.206966
-0.000231004
0.00389952
0.20082
-0.000248282
0.00377846
0.188887
-0.000171323
0.00360095
0.171866
0.00337621
0.150688
-1.52525e-08
0.000206083
0.133074
-1.97794e-09
0.00275307
0.000297658
0.154247
0.00290256
0.000276405
0.171036
0.0030209
0.000163559
0.182716
0.00310202
-1.63266e-08
0.188704
0.00314321
-0.000163591
0.188704
0.00314322
-0.000276434
0.182716
0.00310202
-0.000297682
0.171036
0.0030209
-0.000206103
0.154247
0.00290257
0.133074
-1.60966e-08
0.00275307
-1.37969e-06
7.77406e-05
0.0283551
-7.65064e-11
-1.98597e-06
8.53539e-05
0.0312926
-1.59373e-06
9.18682e-05
0.033763
-8.78899e-07
9.69411e-05
0.0355499
-2.93198e-10
9.96213e-05
0.0364879
8.78318e-07
9.96214e-05
0.0364879
1.59316e-06
9.69413e-05
0.0355499
1.98539e-06
9.18685e-05
0.033763
1.37909e-06
8.53543e-05
0.0312926
7.7741e-05
0.0283551
-6.0074e-10
-1.61117e-06
0.000292711
0.0762912
-1.73202e-10
-2.42314e-06
0.000323336
0.0842213
-1.9375e-06
0.000349791
0.0908699
-1.02621e-06
0.000369853
0.0956672
-1.29588e-09
0.000380553
0.0981817
1.02367e-06
0.000380553
0.0981817
1.93505e-06
0.000369854
0.0956672
2.42082e-06
0.000349792
0.0908699
1.60899e-06
0.000323338
0.0842212
0.000292713
0.0762912
-2.05528e-09
8.78222e-07
0.000602892
0.113407
-2.99594e-10
1.16054e-06
0.000666977
0.125375
1.36766e-06
0.000722223
0.135369
9.56284e-07
0.000763504
0.142562
-2.59285e-09
0.000785516
0.146327
-9.61368e-07
0.000785517
0.146327
-1.37248e-06
0.000763505
0.142562
-1.16488e-06
0.000722225
0.135369
-8.81878e-07
0.000666979
0.125375
0.000602895
0.113407
-3.59879e-09
6.05813e-06
0.000949586
0.140439
-4.41699e-10
8.96116e-06
0.00104903
0.155581
8.68427e-06
0.00113444
0.168165
5.31943e-06
0.00119747
0.177196
-4.12564e-09
0.00123096
0.181914
-5.32751e-06
0.00123096
0.181914
-8.69185e-06
0.00119747
0.177196
-8.96796e-06
0.00113444
0.168165
-6.06403e-06
0.00104904
0.155581
0.00094959
0.140439
-5.292e-09
1.41755e-05
0.00126914
0.158132
-5.98753e-10
2.10216e-05
0.00139754
0.175674
2.00118e-05
0.00150693
0.190175
1.20735e-05
0.00158671
0.200545
-5.80403e-09
0.00162885
0.205953
-1.20849e-05
0.00162885
0.205953
-2.00224e-05
0.00158671
0.200545
-2.10309e-05
0.00150694
0.190175
-1.41835e-05
0.00139755
0.175674
0.00126915
0.158132
-6.96002e-09
2.4994e-05
0.00150615
0.167245
-7.80761e-10
3.69709e-05
0.00165086
0.186503
3.49895e-05
0.00177272
0.202326
2.09988e-05
0.00186044
0.213599
-7.5349e-09
0.00190648
0.219464
-2.10135e-05
0.00190649
0.219464
-3.50031e-05
0.00186045
0.213599
-3.69828e-05
0.00177272
0.202325
-2.50039e-05
0.00165087
0.186503
0.00150616
0.167245
-8.54853e-09
3.80723e-05
0.00162235
0.168543
-1.00391e-09
5.61253e-05
0.0017678
0.188923
5.29407e-05
0.0018884
0.205558
3.16775e-05
0.00197401
0.217361
-9.21929e-09
0.00201859
0.223485
-3.16954e-05
0.0020186
0.223485
-5.29572e-05
0.00197402
0.217361
-5.61396e-05
0.0018884
0.205558
-3.80841e-05
0.0017678
0.188923
0.00162236
0.168543
-1.00057e-08
5.29272e-05
0.00160133
0.162796
-1.26094e-09
7.77473e-05
0.00173248
0.183799
7.30703e-05
0.00183926
0.200825
4.35949e-05
0.00191389
0.212844
-1.07594e-08
0.00195238
0.21906
-4.36158e-05
0.00195238
0.21906
-7.30894e-05
0.00191389
0.212844
-7.77638e-05
0.00183927
0.200825
-5.29406e-05
0.00173248
0.183799
0.00160134
0.162796
-1.1272e-08
6.95286e-05
0.00144902
0.150771
-1.54058e-09
0.000101254
0.00155485
0.172012
9.45513e-05
0.00163894
0.189094
5.61858e-05
0.00169665
0.201075
-1.20557e-08
0.00172613
0.207249
-5.62092e-05
0.00172613
0.207249
-9.45727e-05
0.00169666
0.201075
-0.000101272
0.00163895
0.189094
-6.95433e-05
0.00155486
0.172012
0.00144902
0.150771
-1.22798e-08
8.5681e-05
0.133244
-1.78634e-09
0.00119323
0.000124386
0.154498
0.00126554
0.000115944
0.171361
0.00132301
6.87646e-05
0.183097
0.00136257
-1.30227e-08
0.189116
0.00138271
-6.87898e-05
0.189116
0.00138271
-0.000115967
0.183097
0.00136257
-0.000124405
0.171361
0.00132302
-8.56966e-05
0.154498
0.00126554
0.133244
-1.30043e-08
0.00119323
-3.98442e-07
2.04029e-05
0.0283351
-5.84086e-11
-6.12735e-07
2.25985e-05
0.0312702
-4.90848e-07
2.46009e-05
0.0337382
-2.71896e-07
2.62464e-05
0.0355234
-1.9159e-10
2.71335e-05
0.0364605
2.7151e-07
2.71335e-05
0.0364605
4.90464e-07
2.62466e-05
0.0355234
6.12335e-07
2.46011e-05
0.0337382
3.9803e-07
2.25988e-05
0.0312702
2.04031e-05
0.0283351
-4.31398e-10
-5.07696e-07
9.12984e-05
0.0762208
-1.34227e-10
-8.62791e-07
0.000101628
0.0841426
-7.17192e-07
0.000110815
0.0907835
-3.90861e-07
0.000117961
0.0955752
-9.00243e-10
0.000121816
0.0980866
3.89081e-07
0.000121816
0.0980866
7.15481e-07
0.000117961
0.0955752
8.61136e-07
0.000110816
0.0907835
5.06133e-07
0.000101629
0.0841426
9.12994e-05
0.0762208
-1.5094e-09
3.56882e-07
0.000202707
0.113296
-2.36509e-10
3.37604e-07
0.000225825
0.125251
3.71788e-07
0.000246119
0.135234
2.58539e-07
0.00026155
0.142419
-1.85192e-09
0.00026985
0.146179
-2.62176e-07
0.00026985
0.146179
-3.75238e-07
0.000261551
0.142419
-3.40749e-07
0.000246121
0.135234
-3.59514e-07
0.000225827
0.125251
0.000202709
0.113296
-2.6682e-09
2.28606e-06
0.000334143
0.140305
-3.58868e-10
3.22762e-06
0.000371619
0.155434
3.07289e-06
0.000404251
0.168007
1.86684e-06
0.000428679
0.17703
-2.99767e-09
0.000441751
0.181744
-1.87271e-06
0.000441751
0.181744
-3.0784e-06
0.00042868
0.17703
-3.23261e-06
0.000404254
0.168007
-2.29037e-06
0.000371622
0.155434
0.000334146
0.140305
-3.95989e-09
5.43879e-06
0.000461348
0.157999
-4.99705e-10
7.92646e-06
0.000511376
0.175532
7.48971e-06
0.000554509
0.190025
4.50202e-06
0.000586358
0.200391
-4.26998e-09
0.000603297
0.205796
-4.51036e-06
0.000603298
0.205796
-7.49748e-06
0.00058636
0.200391
-7.93338e-06
0.000554512
0.190025
-5.44466e-06
0.00051138
0.175532
0.000461353
0.157999
-5.2494e-09
9.7718e-06
0.000561504
0.167135
-6.63286e-10
1.43588e-05
0.000619456
0.18639
1.35475e-05
0.000668794
0.202212
8.11769e-06
0.000704726
0.213486
-5.59841e-09
0.0007237
0.219352
-8.1286e-06
0.000723701
0.219352
-1.35576e-05
0.000704728
0.213486
-1.43677e-05
0.000668798
0.202212
-9.77921e-06
0.000619461
0.18639
0.000561509
0.167135
-6.49191e-09
1.51426e-05
0.000617358
0.168472
-8.51172e-10
2.22872e-05
0.000676998
0.188858
2.1004e-05
0.000726977
0.205502
1.2562e-05
0.000762837
0.217311
-6.90736e-09
0.000781615
0.223439
-1.25754e-05
0.000781616
0.223439
-2.10163e-05
0.000762839
0.217311
-2.2298e-05
0.000726981
0.205502
-1.51515e-05
0.000677003
0.188858
0.000617364
0.168472
-7.64575e-09
2.13668e-05
0.000619885
0.162772
-1.04925e-09
3.14016e-05
0.000674847
0.183792
2.95163e-05
0.00072003
0.200834
1.76114e-05
0.000751896
0.212866
-8.12218e-09
0.000768415
0.219091
-1.76271e-05
0.000768416
0.219091
-2.95308e-05
0.000751899
0.212866
-3.14141e-05
0.000720034
0.200834
-2.13769e-05
0.000674852
0.183792
0.00061989
0.162772
-8.66447e-09
2.8369e-05
0.000569234
0.150793