/*--------------------------------*- C++ -*----------------------------------*\
| =========                 |                                                 |
| \\      /  F ield         | OpenFOAM: The Open Source CFD Toolbox           |
|  \\    /   O peration     | Version:  2106                                  |
|   \\  /    A nd           | Website:  www.openfoam.com                      |
|    \\/     M anipulation  |                                                 |
\*---------------------------------------------------------------------------*/
FoamFile
{
    version     2.0;
    format      ascii;
    arch        "LSB;label=32;scalar=64";
    class       surfaceScalarField;
    location    "0.99";
    object      phi;
}
// * * * * * * * * * * * * * * * * * * * * * * * * * * * * * * * * * * * * * //

dimensions      [0 3 -1 0 0 0 0];

oriented        oriented;

internalField   nonuniform List<scalar> 
29100
(
0.00119026
0.151579
0.0815643
-1.84293e-10
0.00146465
0.156494
0.0896341
0.00125689
0.159939
0.0963752
0.000715805
0.162235
0.1012
-1.20679e-09
0.163387
0.103713
-0.000715808
0.163387
0.103713
-0.00125689
0.162235
0.1012
-0.00146465
0.159939
0.0963752
-0.00119026
0.156494
0.0896341
0.151579
0.0815643
-1.61188e-09
0.00238302
0.209876
0.156688
-3.42157e-10
0.00331009
0.214496
0.170318
0.00295233
0.217591
0.181463
0.00170789
0.219522
0.189345
-3.54618e-09
0.220469
0.193418
-0.0017079
0.220469
0.193418
-0.00295234
0.219522
0.189345
-0.0033101
0.217591
0.181463
-0.00238303
0.214496
0.170318
0.209876
0.156688
-4.53426e-09
0.00303993
0.2211
0.18614
-4.44132e-10
0.00429974
0.224048
0.201281
0.00385968
0.225969
0.213469
0.00223548
0.227017
0.222012
-5.75957e-09
0.227503
0.226403
-0.0022355
0.227503
0.226403
-0.00385969
0.227017
0.222012
-0.00429975
0.225969
0.213469
-0.00303994
0.224048
0.201281
0.2211
0.18614
-7.16822e-09
0.00347199
0.207775
0.193293
-5.20667e-10
0.00484403
0.209042
0.208573
0.00433917
0.209814
0.220718
0.00250873
0.210055
0.22917
-7.954e-09
0.210127
0.233496
-0.00250874
0.210127
0.233496
-0.00433918
0.210055
0.22917
-0.00484404
0.209814
0.220718
-0.003472
0.209042
0.208573
0.207775
0.193293
-9.54659e-09
0.00370303
0.182665
0.187881
-6.25397e-10
0.00509659
0.18264
0.202793
0.00455306
0.182539
0.214527
0.00262896
0.182207
0.222644
-1.02041e-08
0.181989
0.226786
-0.00262897
0.181989
0.226786
-0.00455307
0.182207
0.222644
-0.00509661
0.182539
0.214527
-0.00370304
0.18264
0.202793
0.182665
0.187881
-1.17547e-08
0.00378858
0.153107
0.175279
-7.46655e-10
0.00516298
0.152224
0.18967
0.00460282
0.151555
0.200903
0.0026562
0.150887
0.208634
-1.25036e-08
0.150507
0.212567
-0.00265622
0.150507
0.212567
-0.00460285
0.150887
0.208634
-0.005163
0.151555
0.200903
-0.0037886
0.152224
0.18967
0.153107
0.175279
-1.38387e-08
0.00379666
0.123211
0.158644
-8.66985e-10
0.00513773
0.121844
0.172514
0.0045734
0.12086
0.183268
0.00263906
0.120047
0.190636
-1.48626e-08
0.119607
0.194375
-0.00263909
0.119607
0.194375
-0.00457343
0.120047
0.190636
-0.00513775
0.12086
0.183268
-0.00379667
0.121844
0.172514
0.123211
0.158644
-1.58466e-08
0.00376208
0.0952102
0.139819
-1.0252e-09
0.00508353
0.0936192
0.153224
0.00452502
0.0925164
0.163561
0.00261233
0.0917053
0.17061
-1.72394e-08
0.0912856
0.17418
-0.00261237
0.0912856
0.17418
-0.00452505
0.0917053
0.17061
-0.00508356
0.0925164
0.163561
-0.0037621
0.0936192
0.153224
0.0952102
0.139819
-1.77859e-08
0.00373023
0.0702268
0.119869
-1.30994e-09
0.00506533
0.0685774
0.132872
0.00451025
0.0675296
0.142851
0.002603
0.0668363
0.149627
-1.94603e-08
0.0664931
0.15305
-0.00260304
0.0664931
0.15305
-0.00451028
0.0668363
0.149627
-0.00506536
0.0675296
0.142851
-0.00373025
0.0685774
0.132872
0.0702268
0.119869
-1.96721e-08
0.00395221
0.099398
-1.68386e-09
0.0485273
0.00525652
0.112062
0.0472224
0.00462363
0.121728
0.0463938
0.00264836
0.128264
0.0458926
-2.13777e-08
0.131558
0.0456469
-0.0026484
0.131558
0.0456469
-0.00462367
0.128264
0.0458926
-0.00525655
0.121728
0.0463938
-0.00395224
0.112062
0.0472224
0.099398
-2.12584e-08
0.0485273
-0.000242273
0.0368206
0.044986
-2.61949e-10
-0.000244335
0.0400204
0.0496158
-0.000171723
0.0427242
0.0535783
-8.55105e-05
0.0446578
0.0564562
-2.17588e-09
0.0456581
0.0579695
8.55062e-05
0.0456581
0.0579695
0.000171719
0.0446578
0.0564562
0.000244332
0.0427242
0.0535783
0.00024227
0.0400204
0.0496158
0.0368206
0.044986
-2.82768e-09
6.54957e-05
0.0813414
0.112101
-4.73939e-10
0.000255401
0.0871783
0.122971
0.000305095
0.0920322
0.132106
0.00020434
0.0954333
0.138671
-6.67301e-09
0.0971803
0.1421
-0.000204353
0.0971803
0.1421
-0.000305107
0.0954333
0.138671
-0.000255412
0.0920322
0.132106
-6.55053e-05
0.0871783
0.122971
0.0813414
0.112101
-8.3416e-09
0.000619841
0.113099
0.153763
-6.85323e-10
0.00104158
0.119863
0.168175
0.00101907
0.125415
0.180109
0.000622796
0.12923
0.188612
-1.13044e-08
0.131174
0.193032
-0.000622818
0.131174
0.193032
-0.00101909
0.12923
0.188612
-0.0010416
0.125415
0.180109
-0.000619856
0.119863
0.168175
0.113099
0.153763
-1.37532e-08
0.00124418
0.129736
0.175411
-8.97143e-10
0.00189271
0.136182
0.191605
0.00178092
0.141405
0.20484
0.00106364
0.144919
0.214198
-1.60048e-08
0.146693
0.219041
-0.00106367
0.146693
0.219041
-0.00178095
0.144919
0.214198
-0.00189273
0.141405
0.20484
-0.00124421
0.136182
0.191605
0.129736
0.175411
-1.88777e-08
0.00185477
0.133
0.182762
-1.1484e-09
0.00270161
0.138433
0.199695
0.00249681
0.142765
0.213371
0.00147493
0.145612
0.222973
-2.07841e-08
0.147031
0.227922
-0.00147497
0.147031
0.227922
-0.00249685
0.145612
0.222973
-0.00270164
0.142765
0.213371
-0.00185479
0.138433
0.199695
0.133
0.182762
-2.36942e-08
0.00240726
0.125944
0.179928
-1.44205e-09
0.00342133
0.130089
0.197
0.00312929
0.133319
0.210642
0.0018371
0.135379
0.220158
-2.55508e-08
0.136391
0.225044
-0.00183715
0.136391
0.225044
-0.00312934
0.135379
0.220158
-0.00342137
0.133319
0.210642
-0.00240729
0.130089
0.197
0.125944
0.179928
-2.81387e-08
0.00287834
0.111816
0.169893
-1.8099e-09
0.00403532
0.114668
0.186778
0.00366975
0.116809
0.200144
0.00214711
0.118126
0.209411
-3.02753e-08
0.118761
0.214152
-0.00214717
0.118761
0.214152
-0.0036698
0.118126
0.209411
-0.00403536
0.116809
0.200144
-0.00287838
0.114668
0.186778
0.111816
0.169893
-3.21588e-08
0.00326217
0.0935531
0.15482
-2.27043e-09
0.0045533
0.0952413
0.17136
0.00413199
0.0964474
0.184344
0.00241382
0.0971608
0.193294
-3.47325e-08
0.0974984
0.197857
-0.00241388
0.0974984
0.197857
-0.00413205
0.0971608
0.193293
-0.00455336
0.0964474
0.184344
-0.00326221
0.0952413
0.17136
0.0935531
0.15482
-3.56705e-08
0.0035948
0.0735702
0.136257
-2.94865e-09
0.00502485
0.0742888
0.152395
0.00455406
0.0748042
0.164965
0.00265617
0.0751053
0.17358
-3.86393e-08
0.0752478
0.177957
-0.00265624
0.0752478
0.177957
-0.00455413
0.0751053
0.17358
-0.00502491
0.0748042
0.164965
-0.00359485
0.0742888
0.152395
0.0735702
0.136257
-3.8595e-08
0.00402443
0.115303
-3.772e-09
0.0536406
0.00557514
0.13105
0.0537501
0.00501333
0.143207
0.0538876
0.00290782
0.151489
0.053986
-4.16815e-08
0.155682
0.0540318
-0.0029079
0.155682
0.0540318
-0.0050134
0.151489
0.053986
-0.0055752
0.143207
0.0538877
-0.00402448
0.13105
0.0537501
0.115303
-4.0626e-08
0.0536406
3.96056e-05
0.0100786
0.0348678
-3.50786e-10
3.55491e-05
0.0111211
0.0384988
2.9961e-05
0.0120057
0.0415782
1.66063e-05
0.0126626
0.043807
-2.43391e-09
0.0130086
0.0449775
-1.66111e-05
0.0130086
0.0449775
-2.99655e-05
0.0126626
0.043807
-3.55531e-05
0.0120057
0.0415782
-3.96092e-05
0.0111211
0.0384988
0.0100786
0.0348678
-3.30643e-09
0.000283769
0.0305612
0.091335
-6.47698e-10
0.00038541
0.0332942
0.100696
0.000344487
0.0355812
0.108571
0.000200956
0.0372306
0.114246
-7.8057e-09
0.0380924
0.117217
-0.000200971
0.0380924
0.117217
-0.000344501
0.0372306
0.114246
-0.000385423
0.0355812
0.108571
-0.00028378
0.0332942
0.100696
0.0305612
0.091335
-1.00047e-08
0.000606126
0.0516497
0.132068
-9.24598e-10
0.000860112
0.055687
0.145528
0.000779272
0.059021
0.15675
0.000456771
0.0613722
0.164793
-1.34296e-08
0.0625902
0.168991
-0.000456797
0.0625902
0.168991
-0.000779296
0.0613722
0.164793
-0.000860134
0.059021
0.15675
-0.000606145
0.055687
0.145528
0.0516497
0.132068
-1.6491e-08
0.000976707
0.0675987
0.158486
-1.21023e-09
0.00140176
0.0722182
0.174649
0.00128035
0.0759867
0.187996
0.000751947
0.0785927
0.197506
-1.91871e-08
0.0799305
0.202452
-0.000751984
0.0799305
0.202452
-0.00128039
0.0785927
0.197506
-0.00140179
0.0759867
0.187996
-0.000976733
0.0722182
0.174649
0.0675987
0.158486
-2.2628e-08
0.00137019
0.0763944
0.172596
-1.55378e-09
0.00196271
0.0809311
0.19039
0.00179719
0.0845833
0.20494
0.00105575
0.0870607
0.215247
-2.50126e-08
0.0883198
0.220589
-0.0010558
0.0883198
0.220589
-0.00179723
0.0870607
0.215247
-0.00196275
0.0845833
0.20494
-0.00137023
0.0809311
0.19039
0.0763944
0.172596
-2.83722e-08
0.00176601
0.0780523
0.176504
-1.97671e-09
0.00251259
0.0820348
0.195149
0.00229967
0.085186
0.210252
0.00135018
0.0872807
0.220888
-3.07492e-08
0.0883337
0.226381
-0.00135024
0.0883337
0.226381
-0.00229973
0.0872807
0.220888
-0.00251264
0.085186
0.210252
-0.00176605
0.0820348
0.195149
0.0780523
0.176504
-3.36198e-08
0.00214065
0.0736525
0.172152
-2.52834e-09
0.00302695
0.0768155
0.191111
0.00276768
0.0792607
0.206328
0.00162402
0.0808522
0.216983
-3.63335e-08
0.0816433
0.222467
-0.00162409
0.0816433
0.222467
-0.00276775
0.0808523
0.216983
-0.003027
0.0792607
0.206328
-0.0021407
0.0768155
0.191111
0.0736525
0.172152
-3.82699e-08
0.00247786
0.0647594
0.161235
-3.19993e-09
0.00349563
0.0670045
0.180153
0.00319453
0.0686967
0.195209
0.00187359
0.0697784
0.205688
-4.14206e-08
0.0703112
0.211062
-0.00187367
0.0703112
0.211062
-0.0031946
0.0697784
0.205688
-0.00349569
0.0686968
0.195209
-0.00247791
0.0670046
0.180153
0.0647594
0.161235
-4.21968e-08
0.00279024
0.0530483
0.145178
-4.12742e-09
0.00393459
0.0544101
0.163845
0.00358996
0.0554304
0.178576
0.00210255
0.0560802
0.188766
-4.56944e-08
0.0563998
0.193971
-0.00210264
0.0563998
0.193971
-0.00359005
0.0560802
0.188766
-0.00393466
0.0554304
0.178576
-0.00279029
0.0544101
0.163845
0.0530483
0.145178
-4.52646e-08
0.00313628
0.125156
-5.20975e-09
0.0400589
0.00438785
0.14349
0.0407183
0.00398084
0.157798
0.0412465
0.00232204
0.167626
0.0416013
-4.88175e-08
0.172627
0.0417766
-0.00232213
0.172627
0.0417766
-0.00398093
0.167626
0.0416013
-0.00438792
0.157798
0.0412465
-0.00313633
0.14349
0.0407183
0.125156
-4.71074e-08
0.0400589
-3.18717e-05
0.00411802
0.0307816
-3.39879e-10
-4.55105e-05
0.00453472
0.0339777
-3.6679e-05
0.00488831
0.0366811
-2.02166e-05
0.00515122
0.0386393
-2.29689e-09
0.00528895
0.0396683
2.02121e-05
0.00528895
0.0396683
3.66748e-05
0.00515122
0.0386393
4.55066e-05
0.00488831
0.036681
3.18682e-05
0.00453472
0.0339777
0.00411802
0.0307816
-3.15327e-09
1.03353e-05
0.0127891
0.0826536
-6.29196e-10
1.78139e-05
0.0140141
0.0912091
2.22591e-05
0.015052
0.0984031
1.58514e-05
0.0158087
0.103595
-7.52617e-09
0.0162054
0.106317
-1.58662e-05
0.0162054
0.106317
-2.22729e-05
0.0158087
0.103595
-1.7826e-05
0.015052
0.0984031
-1.03454e-05
0.0140141
0.091209
0.0127891
0.0826536
-9.6283e-09
0.000125098
0.0227683
0.121964
-9.73752e-10
0.000189699
0.024803
0.134675
0.000182162
0.0265158
0.145294
0.000110975
0.0277454
0.152928
-1.31418e-08
0.0283874
0.15692
-0.000111001
0.0283874
0.15692
-0.000182186
0.0277454
0.152928
-0.000189721
0.0265158
0.145294
-0.000125117
0.024803
0.134674
0.0227683
0.121964
-1.62045e-08
0.000297663
0.0315716
0.149385
-1.3384e-09
0.000443843
0.0341638
0.165142
0.000418414
0.0363249
0.178212
0.000250869
0.0378534
0.187566
-1.89645e-08
0.0386465
0.192444
-0.000250906
0.0386465
0.192444
-0.000418449
0.0378534
0.187566
-0.000443873
0.0363249
0.178212
-0.000297689
0.0341638
0.165142
0.0315716
0.149385
-2.24223e-08
0.000512244
0.0376607
0.165995
-1.7593e-09
0.000752969
0.0404658
0.183847
0.000704328
0.0427745
0.198539
0.000419564
0.0443827
0.209002
-2.48652e-08
0.0452108
0.214444
-0.000419613
0.0452108
0.214444
-0.000704373
0.0443827
0.209002
-0.000753008
0.0427745
0.198539
-0.000512277
0.0404658
0.183847
0.0376607
0.165995
-2.82213e-08
0.000752634
0.0403756
0.173036
-2.28016e-09
0.00109277
0.0430689
0.192206
0.00101667
0.0452479
0.207855
0.000603297
0.0467412
0.218943
-3.06444e-08
0.0475037
0.224691
-0.000603356
0.0475037
0.224691
-0.00101673
0.0467412
0.218943
-0.00109281
0.0452479
0.207854
-0.000752673
0.0430689
0.192206
0.0403756
0.173036
-3.34772e-08
0.00100135
0.0397336
0.171793
-2.94654e-09
0.00144127
0.0420669
0.191673
0.00133593
0.0439138
0.207768
0.000790762
0.0451582
0.219111
-3.62157e-08
0.0457879
0.224973
-0.000790832
0.0457879
0.224973
-0.001336
0.0451583
0.219111
-0.00144132
0.0439138
0.207768
-0.0010014
0.0420669
0.191673
0.0397336
0.171793
-3.80654e-08
0.00124527
0.0362166
0.163507
-3.71528e-09
0.00178495
0.0380365
0.183643
0.00165023
0.0394435
0.199814
0.000974867
0.0403769
0.211145
-4.11971e-08
0.0408453
0.21698
-0.000974947
0.0408453
0.21698
-0.0016503
0.0403769
0.211145
-0.00178502
0.0394436
0.199814
-0.00124532
0.0380365
0.183643
0.0362166
0.163507
-4.18554e-08
0.00148857
0.0305745
0.149331
-4.71178e-09
0.0021262
0.0318283
0.169415
0.00195807
0.0327824
0.185405
0.00115344
0.0334095
0.196538
-4.52852e-08
0.0337227
0.202247
-0.00115353
0.0337227
0.202247
-0.00195815
0.0334095
0.196538
-0.00212627
0.0327824
0.185405
-0.00148862
0.0318283
0.169415
0.0305745
0.149331
-4.47106e-08
0.00174584
0.130314
-5.83151e-09
0.0236711
0.00247543
0.150193
0.0243958
0.00226669
0.165823
0.0249663
0.00132958
0.176623
0.0253503
-4.8161e-08
0.182137
0.0255422
-0.00132968
0.182137
0.0255422
-0.00226677
0.176623
0.0253503
-0.0024755
0.165823
0.0249663
-0.0017459
0.150193
0.0243958
0.130314
-4.62942e-08
0.0236711
2.11638e-06
0.00134861
0.0294309
-3.27681e-10
-2.83809e-07
0.00149745
0.0324826
1.24722e-07
0.00162689
0.0350538
1.43012e-07
0.0017257
0.0369136
-1.98836e-09
0.00177839
0.0378901
-1.46912e-07
0.00177839
0.0378901
-1.28415e-07
0.0017257
0.0369136
2.80462e-07
0.00162689
0.0350537
-2.11928e-06
0.00149745
0.0324826
0.00134861
0.0294309
-2.80906e-09
3.11731e-05
0.0048388
0.0791322
-6.49351e-10
4.03189e-05
0.00534073
0.0873566
3.71446e-05
0.00577196
0.0942612
2.20356e-05
0.00609231
0.0992435
-6.62273e-09
0.00626205
0.101855
-2.20485e-05
0.00626205
0.101855
-3.71568e-05
0.00609231
0.0992435
-4.03298e-05
0.00577196
0.0942612
-3.11826e-05
0.00534073
0.0873566
0.0048388
0.0791322
-8.70714e-09
8.70221e-05
0.00933635
0.117379
-1.00137e-09
0.000123368
0.010248
0.129731
0.000113885
0.0110243
0.140051
6.76009e-05
0.0115906
0.147476
-1.16438e-08
0.0118891
0.15136
-6.76236e-05
0.0118891
0.15136
-0.000113907
0.0115906
0.147476
-0.000123387
0.0110243
0.140051
-8.70383e-05
0.010248
0.129731
0.00933635
0.117379
-1.45443e-08
0.000169413
0.013721
0.144831
-1.38782e-09
0.000246017
0.0149716
0.160342
0.000228502
0.0160266
0.173227
0.000135706
0.0167847
0.182464
-1.68941e-08
0.0171818
0.187287
-0.000135739
0.0171818
0.187287
-0.000228533
0.0167847
0.182464
-0.000246044
0.0160266
0.173227
-0.000169436
0.0149716
0.160342
0.013721
0.144831
-2.01236e-08
0.000275354
0.0171504
0.16229
-1.82578e-09
0.000401366
0.018594
0.180099
0.000373548
0.0197976
0.194796
0.000221792
0.0206503
0.205289
-2.22376e-08
0.0210936
0.210754
-0.000221835
0.0210936
0.210754
-0.000373588
0.0206503
0.205289
-0.000401402
0.0197976
0.194795
-0.000275384
0.018594
0.180099
0.0171504
0.16229
-2.53664e-08
0.000399406
0.0191202
0.170667
-2.35493e-09
0.000580313
0.0205882
0.190031
0.000539894
0.021794
0.205899
0.000320306
0.0226355
0.217177
-2.74804e-08
0.0230696
0.223036
-0.00032036
0.0230696
0.223036
-0.000539943
0.0226355
0.217177
-0.000580356
0.021794
0.205899
-0.000399441
0.0205882
0.190031
0.0191202
0.170667
-3.01285e-08
0.000533999
0.019453
0.170926
-3.02296e-09
0.000772489
0.0207933
0.191229
0.000717836
0.0218739
0.207742
0.000425449
0.0226165
0.219423
-3.2529e-08
0.0229963
0.225472
-0.000425512
0.0229963
0.225472
-0.000717894
0.0226165
0.219423
-0.000772539
0.0218739
0.207742
-0.00053404
0.0207933
0.191229
0.019453
0.170926
-3.42773e-08
0.000672315
0.0182438
0.164044
-3.78058e-09
0.000969686
0.0193446
0.184795
0.000899515
0.020214
0.201544
0.000532371
0.0208026
0.213326
-3.70145e-08
0.0211011
0.219408
-0.000532443
0.0211011
0.219408
-0.00089958
0.0208026
0.213326
-0.000969742
0.0202141
0.201544
-0.00067236
0.0193446
0.184795
0.0182439
0.164044
-3.76886e-08
0.000814322
0.0157854
0.150975
-4.72302e-09
0.00116893
0.0165896
0.171816
0.00108002
0.0172126
0.188496
0.000637509
0.0176289
0.200154
-4.06644e-08
0.0178386
0.206147
-0.000637588
0.0178386
0.206147
-0.0010801
0.0176289
0.200154
-0.00116899
0.0172126
0.188496
-0.00081437
0.0165896
0.171816
0.0157854
0.150975
-4.02317e-08
0.00095459
0.132645
-5.73889e-09
0.0124995
0.00136232
0.153379
0.0129956
0.00125396
0.169758
0.0133854
0.00073799
0.181118
0.0136497
-4.3198e-08
0.186931
0.0137828
-0.000738074
0.186931
0.0137828
-0.00125404
0.181118
0.0136497
-0.00136239
0.169758
0.0133854
-0.000954641
0.153379
0.0129956
0.132645
-4.16121e-08
0.0124996
-5.62239e-06
0.000588838
0.0288477
-2.8719e-10
-8.38002e-06
0.00064779
0.0318376
-6.63571e-06
0.000697662
0.0343543
-3.6557e-06
0.000735575
0.0361751
-1.56504e-09
0.000755504
0.0371309
3.65246e-06
0.000755504
0.0371309
6.63272e-06
0.000735576
0.0361751
8.37738e-06
0.000697662
0.0343543
5.61989e-06
0.000647791
0.0318376
0.000588839
0.0288477
-2.34376e-09
-8.46791e-07
0.00205171
0.0776702
-6.20907e-10
-1.87301e-06
0.00226028
0.0857452
-5.95568e-07
0.002438
0.0925196
1.93575e-07
0.00257012
0.0974082
-5.28488e-09
0.00264012
0.0999708
-2.03372e-07
0.00264012
0.0999708
5.85888e-07
0.00257012
0.0974082
1.86332e-06
0.002438
0.0925196
8.38916e-07
0.00226028
0.0857452
0.00205171
0.0776702
-7.24481e-09
1.79599e-05
0.00399084
0.115422
-9.64382e-10
2.65734e-05
0.00438895
0.127594
2.60632e-05
0.00472823
0.137761
1.61057e-05
0.00497718
0.145079
-9.54836e-09
0.00510874
0.148908
-1.61246e-05
0.00510874
0.148908
-2.60807e-05
0.00497718
0.145079
-2.6589e-05
0.00472824
0.137761
-1.79733e-05
0.00438895
0.127594
0.00399084
0.115422
-1.21499e-08
5.14689e-05
0.00598148
0.142788
-1.33151e-09
7.66222e-05
0.00655478
0.158151
7.29383e-05
0.00704079
0.170918
4.40325e-05
0.00739307
0.180077
-1.39914e-08
0.00757839
0.184861
-4.40599e-05
0.00757839
0.184861
-7.29637e-05
0.00739307
0.180077
-7.66447e-05
0.0070408
0.170918
-5.14879e-05
0.00655479
0.158151
0.00598149
0.142788
-1.68668e-08
9.84389e-05
0.00764812
0.160525
-1.73476e-09
0.00014582
0.00834084
0.178265
0.000137694
0.00892262
0.192922
8.25422e-05
0.00933906
0.203398
-1.8509e-08
0.00955682
0.208858
-8.25783e-05
0.00955682
0.208858
-0.000137727
0.00933907
0.203398
-0.000145849
0.00892263
0.192922
-9.84634e-05
0.00834085
0.178265
0.00764813
0.160525
-2.1319e-08
0.000156708
0.0087225
0.169436
-2.21728e-09
0.000230513
0.00945774
0.18884
0.000216701
0.0100671
0.204768
0.000129438
0.0104974
0.216106
-2.2947e-08
0.0107208
0.222001
-0.000129483
0.0107208
0.222001
-0.000216742
0.0104974
0.216106
-0.000230549
0.0100671
0.204768
-0.000156737
0.00945776
0.18884
0.00872252
0.169436
-2.5376e-08
0.000223006
0.00906658
0.170359
-2.81646e-09
0.000326052
0.00976571
0.190818
0.000305537
0.0103352
0.207495
0.000182053
0.0107317
0.219312
-2.72188e-08
0.010936
0.225439
-0.000182106
0.010936
0.225439
-0.000305586
0.0107317
0.219312
-0.000326094
0.0103353
0.207495
-0.00022304
0.00976573
0.190818
0.00906659
0.170359
-2.89192e-08
0.000294265
0.00867012
0.164146
-3.47677e-09
0.000428441
0.00926783
0.185159
0.000400205
0.0097455
0.202162
0.000237874
0.0100731
0.214147
-3.10053e-08
0.0102404
0.220341
-0.000237935
0.0102404
0.220341
-0.00040026
0.0100731
0.214147
-0.000428488
0.00974551
0.202162
-0.000294303
0.00926784
0.185159
0.00867014
0.164146
-3.18429e-08
0.000370647
0.00763009
0.151645
-4.27369e-09
0.000535935
0.00808644
0.172832
0.000497841
0.00844362
0.189836
0.000294846
0.00868505
0.201745
-3.40866e-08
0.00880737
0.207875
-0.000294912
0.00880737
0.207875
-0.000497901
0.00868506
0.201745
-0.000535986
0.00844363
0.189836
-0.000370688
0.00808645
0.172832
0.0076301
0.151645
-3.40304e-08
0.000447212
0.1337
-5.12623e-09
0.00612821
0.000642853
0.154846
0.00642384
0.000594884
0.171592
0.00665726
0.000351241
0.18323
0.00681652
-3.62359e-08
0.189193
0.00689709
-0.000351311
0.189193
0.00689709
-0.000594948
0.18323
0.00681653
-0.000642906
0.171592
0.00665727
-0.000447254
0.154846
0.00642384
0.1337
-3.52416e-08
0.00612822
-8.5562e-07
0.000192052
0.0286565
-2.2153e-10
-1.6564e-06
0.000212721
0.0316257
-1.2041e-06
0.000230704
0.0341232
-6.42909e-07
0.000244819
0.0359297
-1.22244e-09
0.00025235
0.0368779
6.40492e-07
0.00025235
0.0368779
1.20181e-06
0.000244819
0.0359297
1.65427e-06
0.000230705
0.0341232
8.53664e-07
0.000212722
0.0316257
0.000192053
0.0286565
-1.82336e-09
1.8653e-06
0.000749476
0.0771109
-4.75604e-10
1.99151e-06
0.000829925
0.0851278
2.15909e-06
0.000899594
0.0918506
1.41388e-06
0.000952311
0.0967015
-4.17236e-09
0.00098045
0.0992441
-1.42206e-06
0.000980451
0.0992441
-2.1668e-06
0.000952312
0.0967015
-1.99837e-06
0.000899596
0.0918506
-1.87124e-06
0.000829927
0.0851278
0.000749478
0.0771109
-5.6664e-09
1.00869e-05
0.00154095
0.11462
-7.81835e-10
1.41663e-05
0.00170312
0.126716
1.34524e-05
0.00184289
0.136819
8.14969e-06
0.0019468
0.144089
-7.45792e-09
0.00200208
0.147894
-8.16429e-06
0.00200208
0.147894
-1.3466e-05
0.0019468
0.144089
-1.41785e-05
0.0018429
0.136819
-1.00975e-05
0.00170312
0.126716
0.00154095
0.11462
-9.5822e-09
2.44659e-05
0.00239658
0.141908
-1.12243e-09
3.56488e-05
0.00264017
0.157203
3.35796e-05
0.00284876
0.169915
2.01456e-05
0.00300174
0.179036
-1.09558e-08
0.00308273
0.183801
-2.0167e-05
0.00308273
0.183801
-3.35996e-05
0.00300174
0.179036
-3.56665e-05
0.00284876
0.169915
-2.44809e-05
0.00264018
0.157203
0.00239658
0.141908
-1.33769e-08
4.50726e-05
0.00315395
0.159722
-1.48805e-09
6.6196e-05
0.00345916
0.177425
6.22536e-05
0.00371808
0.192056
3.72312e-05
0.00390558
0.202519
-1.45517e-08
0.00400425
0.207974
-3.72596e-05
0.00400425
0.207974
-6.228e-05
0.00390558
0.202519
-6.62192e-05
0.00371809
0.192056
-4.50919e-05
0.00345916
0.177425
0.00315396
0.159722
-1.69809e-08
7.13385e-05
0.00368459
0.168834
-1.90686e-09
0.000104721
0.00401914
0.188247
9.83539e-05
0.0042994
0.204193
5.87163e-05
0.00449968
0.215551
-1.81074e-08
0.00460435
0.22146
-5.87516e-05
0.00460436
0.22146
-9.83865e-05
0.00449969
0.215551
-0.000104749
0.00429941
0.204193
-7.13618e-05
0.00401915
0.188247
0.0036846
0.168834
-2.02861e-08
0.000102059
0.00390991
0.170032
-2.40811e-09
0.000149412
0.00423752
0.190552
0.000140106
0.00450758
0.207296
8.35124e-05
0.00469785
0.21917
-2.15442e-08
0.0047965
0.22533
-8.35542e-05
0.00479651
0.22533
-0.000140145
0.00469786
0.21917
-0.000149445
0.00450759
0.207296
-0.000102086
0.00423753
0.190552
0.00390992
0.170032
-2.31952e-08
0.000135932
0.00380683
0.164113
-2.94854e-09
0.000198408
0.00409492
0.185239
0.000185578
0.004328
0.202354
0.000110388
0.00448968
0.21443
-2.46041e-08
0.00457275
0.220675
-0.000110436
0.00457276
0.220675
-0.000185622
0.00448969
0.21443
-0.000198446
0.00432801
0.202354
-0.000135962
0.00409493
0.185239
0.00380684
0.164113
-2.5622e-08
0.000172694
0.00340384
0.151875
-3.58006e-09
0.000250269
0.00363042
0.173219
0.000232844
0.00380937
0.190372
0.000138044
0.00393141
0.202398
-2.71171e-08
0.00399354
0.208592
-0.000138097
0.00399354
0.208592
-0.000232892
0.00393142
0.202398
-0.00025031
0.00380938
0.190372
-0.000172727
0.00363042
0.173219
0.00340385
0.151875
-2.74802e-08
0.000207756
0.13412
-4.22901e-09
0.00277557
0.000300073
0.155458
0.00292628
0.000278645
0.172378
0.00304557
0.000164879
0.184148
0.00312735
-2.89105e-08
0.190182
0.00316888
-0.000164935
0.190182
0.00316888
-0.000278696
0.184148
0.00312735
-0.000300117
0.172378
0.00304557
-0.00020779
0.155458
0.00292628
0.13412
-2.86067e-08
0.00277558
-1.39135e-06
7.83445e-05
0.0285796
-1.69436e-10
-2.0026e-06
8.60168e-05
0.0315403
-1.60718e-06
9.25827e-05
0.0340302
-8.86589e-07
9.76961e-05
0.0358313
-8.89038e-10
0.000100398
0.0367767
8.84828e-07
0.000100398
0.0367767
1.60552e-06
9.76963e-05
0.0358313
2.00105e-06
9.25831e-05
0.0340302
1.38993e-06
8.60174e-05
0.0315403
7.8345e-05
0.0285795
-1.341e-09
-1.62625e-06
0.000295016
0.0768959
-3.88631e-10
-2.44574e-06
0.000325882
0.0848888
-1.95615e-06
0.000352548
0.0915901
-1.03707e-06
0.000372771
0.0964255
-3.0801e-09
0.000383556
0.0989599
1.03101e-06
0.000383557
0.0989599
1.95047e-06
0.000372772
0.0964255
2.44053e-06
0.00035255
0.0915901
1.62158e-06
0.000325884
0.0848888
0.000295018
0.0768958
-4.22872e-09
8.82155e-07
0.000607666
0.114307
-6.2405e-10
1.16438e-06
0.000672259
0.12637
1.37294e-06
0.000727947
0.136443
9.59264e-07
0.000769559
0.143693
-5.54948e-09
0.000791749
0.147487
-9.70129e-07
0.00079175
0.147487
-1.3831e-06
0.000769561
0.143693
-1.17341e-06
0.00072795
0.136443
-8.89516e-07
0.000672262
0.12637
0.00060767
0.114307
-7.10835e-09
6.10234e-06
0.000957129
0.141553
-9.01404e-10
9.02553e-06
0.00105737
0.156815
8.74599e-06
0.00114345
0.169499
5.35554e-06
0.00120699
0.178602
-8.20068e-09
0.00124075
0.183357
-5.37157e-06
0.00124075
0.183357
-8.76093e-06
0.001207
0.178602
-9.03885e-06
0.00114346
0.169499
-6.11362e-06
0.00105737
0.156815
0.000957134
0.141553
-1.00884e-08
1.42844e-05
0.00127924
0.159386
-1.19557e-09
2.11815e-05
0.00140866
0.177067
2.01628e-05
0.00151893
0.191682
1.21623e-05
0.00159934
0.202135
-1.0941e-08
0.00164183
0.207585
-1.21837e-05
0.00164183
0.207585
-2.01826e-05
0.00159934
0.202135
-2.1199e-05
0.00151893
0.191682
-1.4299e-05
0.00140867
0.177067
0.00127924
0.159386
-1.29151e-08
2.51896e-05
0.00151814
0.16857
-1.53001e-09
3.72582e-05
0.00166401
0.18798
3.52597e-05
0.00178683
0.203927
2.11582e-05
0.00187526
0.21529
-1.36668e-08
0.00192168
0.221201
-2.11848e-05
0.00192168
0.221201
-3.52844e-05
0.00187527
0.21529
-3.72798e-05
0.00178684
0.203927
-2.52074e-05
0.00166401
0.18798
0.00151815
0.16857
-1.55145e-08
3.83731e-05
0.00163527
0.169876
-1.92434e-09
5.65663e-05
0.00178187
0.190416
5.33545e-05
0.00190343
0.207183
3.19218e-05
0.00198974
0.219077
-1.63142e-08
0.00203468
0.225249
-3.19536e-05
0.00203468
0.225249
-5.33837e-05
0.00198974
0.219077
-5.65916e-05
0.00190344
0.207182
-3.83937e-05
0.00178188
0.190416
0.00163528
0.169876
-1.78251e-08
5.33473e-05
0.00161408
0.164081
-2.33758e-09
7.83618e-05
0.00174626
0.185249
7.36455e-05
0.0018539
0.202408
4.39345e-05
0.00192912
0.214521
-1.86895e-08
0.00196793
0.220786
-4.39708e-05
0.00196793
0.220786
-7.36788e-05
0.00192913
0.214521
-7.83905e-05
0.00185391
0.202408
-5.33704e-05
0.00174627
0.185249
0.00161408
0.164081
-1.97849e-08
7.00813e-05
0.00146054
0.151958
-2.79999e-09
0.000102057
0.00156722
0.173366
9.52987e-05
0.00165198
0.190581
5.6626e-05
0.00171015
0.202656
-2.06675e-08
0.00173986
0.208877
-5.66661e-05
0.00173986
0.208877
-9.53354e-05
0.00171015
0.202656
-0.000102088
0.00165198
0.190581
-7.01064e-05
0.00156723
0.173366
0.00146055
0.151958
-2.13252e-08
8.6362e-05
0.134292
-3.2618e-09
0.00120272
0.000125374
0.15571
0.0012756
0.000116863
0.172705
0.00133353
6.93055e-05
0.184532
0.0013734
-2.21234e-08
0.190598
0.00139371
-6.93484e-05
0.190598
0.00139371
-0.000116902
0.184532
0.00137341
-0.000125407
0.172705
0.00133354
-8.63884e-05
0.15571
0.0012756
0.134292
-2.23352e-08
0.00120272
-4.02617e-07
2.05483e-05
0.0285594
-1.20501e-10
-6.18895e-07
2.27591e-05
0.0315177
-4.95968e-07
2.4776e-05
0.0340053
-2.7494e-07
2.64336e-05
0.0358046
-6.20372e-10
2.73272e-05
0.0367491
2.73714e-07
2.73272e-05
0.0367491
4.94798e-07
2.64338e-05
0.0358046
6.17811e-07
2.47763e-05
0.0340053
4.01615e-07
2.27595e-05
0.0315177
2.05486e-05
0.0285594
-9.47881e-10
-5.14808e-07
9.19608e-05
0.076825
-2.93982e-10
-8.7398e-07
0.000102365
0.0848095
-7.27096e-07
0.00011162
0.0915031
-3.96987e-07
0.000118818
0.0963328
-2.18118e-09
0.000122702
0.0988641
3.92706e-07
0.000122702
0.0988641
7.23055e-07
0.000118819
0.0963327
8.70288e-07
0.000111621
0.0915031
5.11464e-07
0.000102366
0.0848095
9.19619e-05
0.0768249
-3.03389e-09
3.55157e-07
0.000204193
0.114194
-4.80086e-10
3.32905e-07
0.000227481
0.126245
3.67321e-07
0.000247927
0.136307
2.55277e-07
0.000263474
0.143548
-3.95866e-09
0.000271836
0.147338
-2.63025e-07
0.000271837
0.147338
-3.74588e-07
0.000263475
0.143548
-3.39346e-07
0.000247929
0.136307
-3.60421e-07
0.000227484
0.126245
0.000204195
0.114194
-5.12591e-09
2.2973e-06
0.000336611
0.141418
-6.94168e-10
3.24248e-06
0.000374366
0.156667
3.08654e-06
0.000407244
0.16934
1.87399e-06
0.000431856
0.178435
-5.88609e-09
0.000445028
0.183186
-1.8855e-06
0.000445028
0.183186
-3.09728e-06
0.000431858
0.178435
-3.25206e-06
0.000407247
0.16934
-2.30544e-06
0.00037437
0.156667
0.000336615
0.141418
-7.32153e-09
5.47313e-06
0.000464776
0.159252
-9.15928e-10
7.97544e-06
0.000515178
0.176924
7.53516e-06
0.000558637
0.191531
4.52778e-06
0.000590728
0.201979
-7.89135e-09
0.000607797
0.207427
-4.54319e-06
0.000607798
0.207427
-7.54948e-06
0.00059073
0.201979
-7.98811e-06
0.000558641
0.191531
-5.48375e-06
0.000515183
0.176924
0.000464781
0.159252
-9.43001e-09
9.83865e-06
0.000565692
0.168459
-1.16189e-09
1.44558e-05
0.00062408
0.187866
1.36379e-05
0.000673793
0.203813
8.16999e-06
0.000709998
0.215176
-9.89983e-09
0.000729118
0.221088
-8.1893e-06
0.000729119
0.221088
-1.36558e-05
0.000710001
0.215176
-1.44715e-05
0.000673797
0.203813
-9.85162e-06
0.000624085
0.187866
0.000565698
0.168459
-1.13933e-08
1.52502e-05
0.000621975
0.169805
-1.44586e-09
2.24443e-05
0.000682066
0.190351
2.11508e-05
0.000732424
0.207125
1.26475e-05
0.000768558
0.219027
-1.18617e-08
0.00078748
0.225204
-1.26706e-05
0.000787482
0.225203
-2.1172e-05
0.000768561
0.219027
-2.24628e-05
0.000732429
0.207125
-1.52654e-05
0.000682071
0.190351
0.000621982
0.169805
-1.31656e-08
2.15219e-05
0.000624529
0.164057
-1.74057e-09
3.16283e-05
0.000679907
0.185241
2.9728e-05
0.000725434
0.202417
1.77353e-05
0.000757544
0.214544
-1.36394e-08
0.000774189
0.220817
-1.77618e-05
0.00077419
0.220817
-2.97524e-05
0.000757547
0.214544
-3.16494e-05
0.000725439
0.202417
-2.15389e-05
0.000679913
0.185241
0.000624535
0.164057
-1.47003e-08
2.85776e-05
0.000573503
0.151981
-2.06816e-09
4.16564e-05
0.000619179