/*--------------------------------*- C++ -*----------------------------------*\
| =========                 |                                                 |
| \\      /  F ield         | OpenFOAM: The Open Source CFD Toolbox           |
|  \\    /   O peration     | Version:  2106                                  |
|   \\  /    A nd           | Website:  www.openfoam.com                      |
|    \\/     M anipulation  |                                                 |
\*---------------------------------------------------------------------------*/
FoamFile
{
    version     2.0;
    format      ascii;
    arch        "LSB;label=32;scalar=64";
    class       surfaceScalarField;
    location    "0.8";
    object      phi;
}
// * * * * * * * * * * * * * * * * * * * * * * * * * * * * * * * * * * * * * //

dimensions      [0 3 -1 0 0 0 0];

oriented        oriented;

internalField   nonuniform List<scalar> 
29100
(
0.0011809
0.150399
0.0809153
1.42505e-11
0.00145315
0.155276
0.0889209
0.00124702
0.158696
0.0956085
0.00071019
0.160973
0.100395
-1.23638e-09
0.162116
0.102888
-0.000710192
0.162116
0.102888
-0.00124703
0.160973
0.100395
-0.00145315
0.158696
0.0956085
-0.0011809
0.155276
0.0889209
0.150399
0.0809153
-1.56536e-09
0.00236442
0.20825
0.155448
-6.62554e-11
0.00328428
0.212835
0.168971
0.00292932
0.215907
0.180028
0.00169459
0.217824
0.187848
-3.6182e-09
0.218764
0.191888
-0.00169459
0.218764
0.191888
-0.00292933
0.217824
0.187848
-0.00328428
0.215907
0.180028
-0.00236442
0.212835
0.168971
0.20825
0.155448
-4.56264e-09
0.00301633
0.219394
0.184671
-5.25607e-11
0.00426638
0.222321
0.199694
0.00382974
0.224228
0.211786
0.00221815
0.225269
0.220262
-5.93528e-09
0.225752
0.224618
-0.00221817
0.225752
0.224618
-0.00382975
0.225269
0.220262
-0.00426639
0.224228
0.211786
-0.00301634
0.222321
0.199694
0.219394
0.184671
-7.31726e-09
0.00344516
0.206178
0.191772
-1.09524e-10
0.00480661
0.207437
0.206932
0.00430567
0.208205
0.218982
0.00248937
0.208444
0.227368
-8.30356e-09
0.208516
0.23166
-0.00248938
0.208516
0.23166
-0.00430569
0.208444
0.227368
-0.00480663
0.208205
0.218982
-0.00344517
0.207437
0.206932
0.206178
0.191772
-9.88994e-09
0.00367454
0.181267
0.186405
-1.76516e-10
0.0050574
0.181243
0.201201
0.00451807
0.181145
0.212843
0.00260876
0.180816
0.220897
-1.07522e-08
0.1806
0.225006
-0.00260878
0.1806
0.225006
-0.00451809
0.180816
0.220897
-0.00505742
0.181145
0.212843
-0.00367456
0.181243
0.201201
0.181267
0.186405
-1.22929e-08
0.00375955
0.151939
0.173905
-2.60231e-10
0.00512345
0.151065
0.188184
0.00456761
0.150402
0.199329
0.00263588
0.149739
0.206999
-1.32773e-08
0.149363
0.210902
-0.00263591
0.149363
0.210902
-0.00456763
0.149739
0.206999
-0.00512347
0.150402
0.199329
-0.00375957
0.151065
0.188184
0.151939
0.173905
-1.4548e-08
0.00376768
0.122275
0.157401
-4.30507e-10
0.00509856
0.12092
0.171164
0.00453856
0.119944
0.181835
0.00261897
0.119137
0.189145
-1.58522e-08
0.118702
0.192855
-0.002619
0.118702
0.192855
-0.00453859
0.119137
0.189145
-0.00509859
0.119944
0.181835
-0.0037677
0.12092
0.171164
0.122275
0.157401
-1.66215e-08
0.00373348
0.0944892
0.138726
-6.80188e-10
0.00504494
0.0929114
0.152026
0.00449069
0.0918177
0.162283
0.00259253
0.0910133
0.169277
-1.83751e-08
0.0905971
0.172819
-0.00259256
0.0905971
0.172819
-0.00449072
0.0910133
0.169277
-0.00504497
0.0918177
0.162283
-0.0037335
0.0929114
0.152026
0.0944892
0.138726
-1.84664e-08
0.00370198
0.0696966
0.118932
-1.20631e-09
0.00502702
0.0680605
0.131835
0.00447617
0.0670213
0.141737
0.00258335
0.0663336
0.148459
-2.06581e-08
0.0659932
0.151856
-0.00258339
0.0659932
0.151856
-0.0044762
0.0663336
0.148459
-0.00502705
0.0670213
0.141737
-0.003702
0.0680605
0.131835
0.0696966
0.118932
-2.0064e-08
0.00392235
0.0986225
-1.62211e-09
0.0481619
0.00521688
0.111188
0.0468675
0.0045888
0.120779
0.0460456
0.00262842
0.127264
0.0455484
-2.24101e-08
0.130533
0.0453047
-0.00262846
0.130533
0.0453047
-0.00458884
0.127264
0.0455484
-0.00521691
0.120779
0.0460456
-0.00392238
0.111188
0.0468675
0.0986225
-2.13297e-08
0.0481619
-0.000240333
0.0365299
0.0446258
-2.24235e-10
-0.000242375
0.0397045
0.0492185
-0.000170343
0.0423871
0.0531494
-8.48215e-05
0.0443055
0.0560042
-2.18682e-09
0.045298
0.0575054
8.48172e-05
0.045298
0.0575054
0.000170339
0.0443055
0.0560042
0.000242372
0.0423871
0.0531494
0.00024033
0.0397045
0.0492185
0.0365299
0.0446258
-3.04056e-09
6.50097e-05
0.0807031
0.111209
-3.81859e-10
0.000253421
0.0864945
0.121992
0.000302716
0.0913107
0.131055
0.000202743
0.0946854
0.137568
-6.98711e-09
0.0964188
0.14097
-0.000202757
0.0964188
0.14097
-0.000302728
0.0946854
0.137568
-0.000253433
0.0913107
0.131055
-6.50201e-05
0.0864945
0.121992
0.0807031
0.111209
-9.06282e-09
0.000615007
0.112216
0.152544
-4.46558e-10
0.00103345
0.118928
0.166842
0.00101111
0.124437
0.178683
0.000617926
0.128222
0.187119
-1.20234e-08
0.130152
0.191504
-0.00061795
0.130152
0.191503
-0.00101113
0.128222
0.187119
-0.00103347
0.124437
0.178683
-0.000615025
0.118928
0.166842
0.112216
0.152544
-1.49039e-08
0.00123449
0.128727
0.174025
-5.33189e-10
0.00187796
0.135123
0.190092
0.00176704
0.140306
0.203223
0.00105535
0.143794
0.212508
-1.71896e-08
0.145555
0.217312
-0.00105538
0.145555
0.217312
-0.00176707
0.143794
0.212508
-0.00187799
0.140306
0.203223
-0.00123451
0.135123
0.190092
0.128727
0.174025
-2.0447e-08
0.00184035
0.13197
0.181322
-6.6348e-10
0.00268063
0.137361
0.198123
0.00247743
0.141661
0.211692
0.00146348
0.144486
0.221219
-2.24236e-08
0.145895
0.22613
-0.00146352
0.145895
0.22613
-0.00247747
0.144486
0.221219
-0.00268066
0.141661
0.211692
-0.00184038
0.137361
0.198123
0.13197
0.181322
-2.56047e-08
0.00238861
0.124972
0.178514
-8.69581e-10
0.00339485
0.129085
0.195453
0.00310509
0.13229
0.208989
0.00182289
0.134336
0.218431
-2.76662e-08
0.13534
0.223279
-0.00182294
0.13534
0.223279
-0.00310514
0.134336
0.218431
-0.00339489
0.13229
0.208989
-0.00238865
0.129085
0.195453
0.124972
0.178514
-3.03248e-08
0.00285613
0.110955
0.168562
-1.24136e-09
0.0040042
0.113786
0.185315
0.00364147
0.115911
0.198577
0.00213056
0.117219
0.207772
-3.28231e-08
0.117849
0.212477
-0.00213063
0.117849
0.212477
-0.00364152
0.117219
0.207772
-0.00400425
0.115911
0.198577
-0.00285617
0.113786
0.185315
0.110955
0.168562
-3.45212e-08
0.00323708
0.0928345
0.153609
-1.82831e-09
0.00451831
0.0945104
0.170021
0.00410025
0.0957078
0.182904
0.00239528
0.0964162
0.191785
-3.77073e-08
0.0967515
0.196313
-0.00239535
0.0967515
0.196313
-0.00410032
0.0964162
0.191785
-0.00451837
0.0957078
0.182904
-0.00323712
0.0945104
0.170021
0.0928345
0.153609
-3.81545e-08
0.00356724
0.0730063
0.135193
-2.82425e-09
0.00498635
0.07372
0.151206
0.00451918
0.0742319
0.16368
0.00263583
0.074531
0.172228
-4.19308e-08
0.0746726
0.176571
-0.00263591
0.0746726
0.176571
-0.00451926
0.074531
0.172228
-0.00498641
0.0742319
0.16368
-0.00356729
0.07372
0.151206
0.0730063
0.135193
-4.13976e-08
0.00399366
0.114405
-4.12397e-09
0.0532302
0.00553251
0.130029
0.0533394
0.00497501
0.142093
0.0534762
0.0028856
0.150311
0.053574
-4.48598e-08
0.154472
0.0536196
-0.00288569
0.154472
0.0536196
-0.00497509
0.150311
0.053574
-0.00553258
0.142093
0.0534762
-0.00399371
0.130029
0.0533394
0.114405
-4.40088e-08
0.0532302
3.93059e-05
0.00999794
0.0345885
-2.66931e-10
3.52794e-05
0.011032
0.0381905
2.97324e-05
0.0119096
0.0412453
1.64797e-05
0.0125612
0.0434563
-2.51368e-09
0.0129044
0.0446174
-1.64846e-05
0.0129044
0.0446174
-2.97371e-05
0.0125612
0.0434563
-3.52836e-05
0.0119096
0.0412453
-3.93098e-05
0.011032
0.0381905
0.00999794
0.0345885
-3.61937e-09
0.000281545
0.0303175
0.0906083
-4.21538e-10
0.000382381
0.0330286
0.099895
0.000341775
0.0352973
0.107708
0.000199373
0.0369337
0.113338
-8.30588e-09
0.0377885
0.116286
-0.00019939
0.0377885
0.116286
-0.000341791
0.0369337
0.113338
-0.000382395
0.0352974
0.107708
-0.000281557
0.0330286
0.099895
0.0303175
0.0906083
-1.10313e-08
0.000601351
0.0512387
0.131021
-6.1192e-10
0.000853331
0.055244
0.144375
0.000773124
0.0585515
0.155509
0.000453166
0.060884
0.163488
-1.45239e-08
0.0620924
0.167653
-0.000453194
0.0620924
0.167653
-0.000773151
0.060884
0.163488
-0.000853355
0.0585515
0.155509
-0.000601372
0.055244
0.144375
0.0512387
0.131021
-1.82402e-08
0.000968996
0.0670619
0.157233
-8.11574e-10
0.0013907
0.0716448
0.17327
0.00127025
0.0753835
0.186511
0.00074601
0.077969
0.195947
-2.09958e-08
0.0792962
0.200854
-0.000746051
0.0792962
0.200854
-0.00127029
0.077969
0.195947
-0.00139073
0.0753835
0.186511
-0.000969025
0.0716448
0.17327
0.0670619
0.157233
-2.51302e-08
0.00135937
0.0757889
0.171236
-1.05902e-09
0.00194721
0.0802898
0.18889
0.001783
0.0839133
0.203326
0.00104741
0.0863711
0.213553
-2.75632e-08
0.0876203
0.218853
-0.00104747
0.0876203
0.218853
-0.00178305
0.0863712
0.213553
-0.00194726
0.0839133
0.203326
-0.00135941
0.0802898
0.18889
0.0757889
0.171236
-3.15569e-08
0.00175206
0.0774346
0.175116
-1.40373e-09
0.00249276
0.0813859
0.193616
0.00228153
0.0845124
0.208601
0.00133953
0.0865907
0.219154
-3.40547e-08
0.0876354
0.224604
-0.0013396
0.0876354
0.224604
-0.00228159
0.0865907
0.219154
-0.00249281
0.0845124
0.208601
-0.0017521
0.0813859
0.193616
0.0774346
0.175116
-3.73925e-08
0.00212375
0.0730706
0.170802
-1.94399e-09
0.00300308
0.0762088
0.189613
0.00274586
0.0786349
0.204712
0.00161122
0.0802141
0.215284
-4.02655e-08
0.080999
0.220725
-0.0016113
0.080999
0.220725
-0.00274594
0.0802141
0.215284
-0.00300314
0.0786349
0.204712
-0.0021238
0.0762089
0.189613
0.0730706
0.170802
-4.24723e-08
0.00245832
0.0642485
0.159973
-2.68003e-09
0.00346809
0.0664761
0.178744
0.00316938
0.0681552
0.193682
0.00185884
0.0692285
0.204081
-4.59138e-08
0.0697571
0.209413
-0.00185893
0.0697571
0.209413
-0.00316946
0.0692285
0.204081
-0.00346816
0.0681552
0.193682
-0.00245838
0.0664761
0.178744
0.0642485
0.159973
-4.65954e-08
0.00276827
0.0526303
0.144043
-3.66536e-09
0.00390363
0.0539815
0.162566
0.00356173
0.054994
0.177183
0.00208601
0.0556388
0.187293
-5.06033e-08
0.0559559
0.192458
-0.00208611
0.0559559
0.192458
-0.00356182
0.0556388
0.187293
-0.00390371
0.054994
0.177183
-0.00276833
0.0539815
0.162566
0.0526303
0.144043
-4.96393e-08
0.00311164
0.12418
-4.73193e-09
0.0397436
0.00435337
0.142371
0.0403979
0.00394955
0.156568
0.0409221
0.00230379
0.166321
0.0412741
-5.37965e-08
0.171283
0.0414481
-0.00230389
0.171283
0.0414481
-0.00394965
0.166321
0.0412741
-0.00435345
0.156568
0.0409221
-0.0031117
0.142371
0.0403979
0.12418
-5.12685e-08
0.0397436
-3.16234e-05
0.00408456
0.0305356
-3.07949e-10
-4.51586e-05
0.00449787
0.0337062
-3.63977e-05
0.00484858
0.036388
-2.00621e-05
0.00510934
0.0383306
-2.39158e-09
0.00524595
0.0393514
2.00574e-05
0.00524595
0.0393514
3.63933e-05
0.00510934
0.0383306
4.51543e-05
0.00484858
0.036388
3.16195e-05
0.00449787
0.0337062
0.00408456
0.0305356
-3.52544e-09
1.02221e-05
0.0126846
0.081998
-5.7463e-10
1.76221e-05
0.0138996
0.0904859
2.20317e-05
0.0149291
0.0976232
1.56948e-05
0.0156795
0.102774
-8.13628e-09
0.016073
0.105474
-1.57108e-05
0.016073
0.105474
-2.20468e-05
0.0156795
0.102774
-1.76354e-05
0.0149291
0.0976231
-1.02336e-05
0.0138996
0.0904859
0.0126846
0.081998
-1.08546e-08
0.000124027
0.0225819
0.121
-8.33081e-10
0.000188073
0.0246
0.133611
0.000180601
0.0262987
0.144146
0.000110025
0.0275182
0.15172
-1.44394e-08
0.0281549
0.155681
-0.000110053
0.0281549
0.155681
-0.000180628
0.0275182
0.15172
-0.000188097
0.0262987
0.144146
-0.000124048
0.0246
0.133611
0.0225819
0.121
-1.83098e-08
0.00029516
0.0313128
0.148207
-1.08619e-09
0.00044011
0.0338838
0.163841
0.000414896
0.0360271
0.176808
0.000248759
0.0375431
0.186088
-2.10682e-08
0.0383297
0.190929
-0.0002488
0.0383297
0.190928
-0.000414934
0.0375431
0.186088
-0.000440144
0.0360271
0.176808
-0.00029519
0.0338838
0.163841
0.0313128
0.148207
-2.54051e-08
0.000507966
0.0373518
0.164689
-1.39232e-09
0.00074668
0.0401339
0.182401
0.000698447
0.0424236
0.196978
0.000416061
0.0440186
0.20736
-2.7819e-08
0.04484
0.212759
-0.000416115
0.04484
0.212759
-0.000698498
0.0440186
0.20736
-0.000746725
0.0424237
0.196978
-0.000508004
0.0401339
0.182401
0.0373518
0.164689
-3.19803e-08
0.000746371
0.0400444
0.171677
-1.80012e-09
0.00108367
0.0427155
0.190697
0.00100822
0.0448767
0.206223
0.000598279
0.0463578
0.217225
-3.44937e-08
0.047114
0.222928
-0.000598346
0.047114
0.222928
-0.00100828
0.0463578
0.217224
-0.00108373
0.0448767
0.206223
-0.000746416
0.0427155
0.190697
0.0400444
0.171677
-3.78969e-08
0.000993043
0.0394076
0.170446
-2.40772e-09
0.00142931
0.0417218
0.19017
0.00132485
0.0435536
0.206139
0.000784202
0.0447878
0.217394
-4.08577e-08
0.0454123
0.223211
-0.000784282
0.0454123
0.223211
-0.00132493
0.0447878
0.217394
-0.00142937
0.0435536
0.206139
-0.000993095
0.0417218
0.19017
0.0394076
0.170446
-4.29885e-08
0.00123496
0.0359195
0.162226
-3.24248e-09
0.00177018
0.0377245
0.182206
0.00163657
0.03912
0.19825
0.000966799
0.0400457
0.209493
-4.65758e-08
0.0405102
0.215282
-0.00096689
0.0405102
0.215282
-0.00163665
0.0400457
0.209493
-0.00177025
0.03912
0.19825
-0.00123502
0.0377245
0.182206
0.0359195
0.162226
-4.70708e-08
0.00147628
0.0303237
0.148163
-4.41636e-09
0.00210865
0.0315672
0.168091
0.0019419
0.0325135
0.183956
0.00114392
0.0331355
0.195001
-5.11856e-08
0.0334461
0.200666
-0.00114401
0.0334461
0.200666
-0.00194199
0.0331355
0.195001
-0.00210872
0.0325135
0.183956
-0.00147634
0.0315672
0.16809
0.0303237
0.148163
-5.00638e-08
0.00173149
0.129295
-5.71214e-09
0.0234769
0.00245505
0.149019
0.0241957
0.00224802
0.164527
0.0247615
0.00131863
0.175243
0.0251424
-5.41146e-08
0.180715
0.0253328
-0.00131874
0.180715
0.0253328
-0.00224812
0.175243
0.0251424
-0.00245513
0.164527
0.0247615
-0.00173155
0.149019
0.0241957
0.129295
-5.1622e-08
0.0234769
2.11141e-06
0.00133682
0.0291967
-2.69952e-10
-2.68479e-07
0.00148438
0.0322242
1.32806e-07
0.0016127
0.0347749
1.46366e-07
0.00171066
0.03662
-2.06692e-09
0.0017629
0.0375887
-1.50465e-07
0.0017629
0.0375887
-1.36717e-07
0.00171066
0.03662
2.648e-07
0.0016127
0.0347749
-2.11472e-06
0.00148438
0.0322242
0.00133682
0.0291967
-3.22785e-09
3.0932e-05
0.00479692
0.078507
-4.53253e-10
3.99994e-05
0.00529453
0.0866667
3.68448e-05
0.00572205
0.093517
2.18556e-05
0.00603965
0.09846
-7.18374e-09
0.00620793
0.101051
-2.18698e-05
0.00620793
0.101051
-3.68581e-05
0.00603965
0.09846
-4.00117e-05
0.00572205
0.0935169
-3.0943e-05
0.00529453
0.0866667
0.00479692
0.078507
-1.00712e-08
8.63058e-05
0.00925581
0.116455
-7.45976e-10
0.000122341
0.0101596
0.12871
0.000112931
0.0109292
0.138949
6.70314e-05
0.0114907
0.146315
-1.29365e-08
0.0117866
0.150169
-6.70568e-05
0.0117866
0.150169
-0.000112954
0.0114907
0.146315
-0.000122363
0.0109292
0.138949
-8.63246e-05
0.0101596
0.12871
0.00925582
0.116455
-1.68597e-08
0.000167988
0.0136028
0.143692
-1.06727e-09
0.000243936
0.0148426
0.159082
0.000226563
0.0158884
0.171866
0.000134551
0.0166401
0.181031
-1.90515e-08
0.0170337
0.185816
-0.000134588
0.0170337
0.185816
-0.000226598
0.0166401
0.181031
-0.000243968
0.0158885
0.171866
-0.000168015
0.0148426
0.159082
0.0136028
0.143692
-2.33895e-08
0.000273013
0.0170026
0.161016
-1.45925e-09
0.000397945
0.0184337
0.178685
0.000370358
0.019627
0.193267
0.000219895
0.0204722
0.203678
-2.53067e-08
0.0209117
0.209101
-0.000219944
0.0209117
0.209101
-0.000370404
0.0204722
0.203678
-0.000397986
0.019627
0.193267
-0.000273048
0.0184338
0.178685
0.0170026
0.161016
-2.9476e-08
0.00039599
0.0189554
0.169329
-1.9614e-09
0.000575343
0.0204107
0.188541
0.000535266
0.021606
0.204284
0.000317557
0.0224403
0.215474
-3.14897e-08
0.0228706
0.221287
-0.000317619
0.0228706
0.221287
-0.000535323
0.0224403
0.215474
-0.000575393
0.021606
0.204284
-0.000396032
0.0204107
0.188541
0.0189554
0.169329
-3.49495e-08
0.000529416
0.0192852
0.169587
-2.64953e-09
0.000765855
0.0206139
0.18973
0.000711669
0.0216851
0.206114
0.000421791
0.0224213
0.217703
-3.73639e-08
0.0227978
0.223705
-0.000421863
0.0227978
0.223705
-0.000711736
0.0224213
0.217703
-0.000765914
0.0216851
0.206114
-0.000529464
0.0206139
0.18973
0.0192852
0.169587
-3.96291e-08
0.000666533
0.0180864
0.162759
-3.50888e-09
0.000961346
0.0191775
0.183347
0.000891776
0.0200395
0.199965
0.000527787
0.0206229
0.211655
-4.2612e-08
0.0209188
0.217689
-0.00052787
0.0209188
0.217689
-0.000891852
0.0206229
0.211655
-0.000961411
0.0200395
0.199965
-0.000666586
0.0191776
0.183347
0.0180864
0.162759
-4.33241e-08
0.000807313
0.0156491
0.149793
-4.59688e-09
0.00115886
0.0164463
0.17047
0.00107073
0.0170638
0.18702
0.000632016
0.0174766
0.198586
-4.68059e-08
0.0176844
0.204533
-0.000632107
0.0176844
0.204533
-0.00107081
0.0174766
0.198586
-0.00115894
0.0170639
0.18702
-0.00080737
0.0164463
0.17047
0.0156491
0.149793
-4.59359e-08
0.000946389
0.131606
-5.77822e-09
0.0123916
0.0013506
0.152178
0.0128833
0.00124316
0.168429
0.0132696
0.00073163
0.1797
0.0135317
-4.94207e-08
0.185468
0.0136637
-0.000731725
0.185468
0.0136637
-0.00124325
0.1797
0.0135317
-0.00135067
0.168429
0.0132697
-0.000946447
0.152178
0.0128833
0.131606
-4.71401e-08
0.0123916
-5.57528e-06
0.000583504
0.0286187
-2.70236e-10
-8.31102e-06
0.000641921
0.031585
-6.58265e-06
0.00069134
0.0340818
-3.62693e-06
0.000728908
0.0358881
-1.65121e-09
0.000748655
0.0368364
3.62351e-06
0.000748655
0.0368364
6.57942e-06
0.000728909
0.0358881
8.30808e-06
0.000691341
0.0340818
5.57237e-06
0.000641923
0.031585
0.000583505
0.0286187
-2.77178e-09
-8.50109e-07
0.00203304
0.0770583
-5.51087e-10
-1.87639e-06
0.00223971
0.0850699
-6.08918e-07
0.00241582
0.0917912
1.80882e-07
0.00254673
0.0966414
-5.82096e-09
0.00261609
0.0991839
-1.9163e-07
0.00261609
0.0991839
5.98047e-07
0.00254673
0.0966414
1.86533e-06
0.00241582
0.0917912
8.4082e-07
0.00223972
0.0850699
0.00203305
0.0770583
-8.60337e-09
1.77786e-05
0.00395447
0.114516
-8.37979e-10
2.6302e-05
0.00434895
0.126592
2.57962e-05
0.00468514
0.13668
1.59403e-05
0.00493181
0.14394
-1.07602e-08
0.00506218
0.147739
-1.59617e-05
0.00506218
0.147739
-2.58162e-05
0.00493182
0.14394
-2.632e-05
0.00468515
0.13668
-1.77945e-05
0.00434896
0.126592
0.00395448
0.114516
-1.44256e-08
5.0975e-05
0.00592691
0.141669
-1.14453e-09
7.58839e-05
0.00649497
0.156911
7.22341e-05
0.00697654
0.169579
4.36063e-05
0.00732559
0.178666
-1.60066e-08
0.00750922
0.183413
-4.36377e-05
0.00750922
0.183413
-7.22634e-05
0.0073256
0.178666
-7.59101e-05
0.00697655
0.169579
-5.09976e-05
0.00649498
0.156911
0.00592692
0.141669
-2.00469e-08
9.75086e-05
0.00757826
0.159267
-1.51988e-09
0.000144439
0.00826463
0.176869
0.000136389
0.00884108
0.19141
8.17583e-05
0.0092537
0.201804
-2.13838e-08
0.00946946
0.207222
-8.18001e-05
0.00946946
0.207222
-0.000136428
0.00925371
0.201804
-0.000144474
0.00884109
0.19141
-9.75377e-05
0.00826465
0.176869
0.00757828
0.159267
-2.52992e-08
0.000155237
0.00864273
0.168109
-1.9927e-09
0.000228348
0.00937121
0.187361
0.000214664
0.00997492
0.203164
0.00012822
0.0104013
0.214413
-2.67105e-08
0.0106226
0.220262
-0.000128272
0.0106226
0.220262
-0.000214712
0.0104013
0.214413
-0.00022839
0.00997493
0.203164
-0.000155272
0.00937122
0.187361
0.00864275
0.168109
-3.00307e-08
0.00022092
0.00898355
0.169025
-2.62213e-09
0.000323002
0.00967623
0.189323
0.000302678
0.0102405
0.205869
0.000180347
0.0106333
0.217594
-3.1775e-08
0.0108357
0.223673
-0.000180409
0.0108357
0.223673
-0.000302735
0.0106333
0.217593
-0.000323052
0.0102405
0.205869
-0.000220961
0.00967624
0.189323
0.00898357
0.169025
-3.40825e-08
0.000291521
0.00859062
0.16286
-3.41037e-09
0.000424445
0.00918279
0.183708
0.000396472
0.00965603
0.200577
0.000235653
0.00998061
0.212468
-3.63001e-08
0.0101464
0.218614
-0.000235724
0.0101464
0.218614
-0.000396537
0.00998062
0.212468
-0.000424501
0.00965605
0.200577
-0.000291566
0.0091828
0.183708
0.00859064
0.16286
-3.72846e-08
0.000367201
0.00756004
0.150456
-4.40888e-09
0.000530952
0.00801213
0.171477
0.000493212
0.008366
0.188347
0.000292101
0.00860519
0.200163
-3.99226e-08
0.00872637
0.206245
-0.000292179
0.00872637
0.206245
-0.000493282
0.0086052
0.200163
-0.000531012
0.00836601
0.188347
-0.000367249
0.00801215
0.171477
0.00756005
0.150456
-3.95374e-08
0.000443081
0.132652
-5.42831e-09
0.00607186
0.000636904
0.153632
0.00636473
0.000589375
0.170247
0.00659598
0.000347984
0.181793
0.00675377
-4.22098e-08
0.187708
0.00683358
-0.000348065
0.187708
0.00683358
-0.000589449
0.181793
0.00675377
-0.000636967
0.170246
0.00659599
-0.000443131
0.153632
0.00636474
0.132651
-4.0558e-08
0.00607187
-8.4313e-07
0.000190018
0.0284296
-2.26718e-10
-1.63633e-06
0.000210473
0.0313753
-1.18967e-06
0.000228272
0.0338531
-6.35365e-07
0.000242244
0.0356453
-1.29908e-09
0.000249698
0.0365861
6.32777e-07
0.000249698
0.0365861
1.18717e-06
0.000242244
0.0356453
1.63392e-06
0.000228273
0.0338531
8.40803e-07
0.000210474
0.0313753
0.000190019
0.0284296
-2.20269e-09
1.85212e-06
0.000741781
0.0765047
-5.11353e-10
1.97585e-06
0.000821419
0.0844589
2.13962e-06
0.000890388
0.0911289
1.40018e-06
0.000942576
0.0959418
-4.64797e-09
0.000970435
0.0984645
-1.40935e-06
0.000970435
0.0984645
-2.14838e-06
0.000942578
0.0959418
-1.9838e-06
0.000890391
0.0911289
-1.85928e-06
0.000821421
0.0844588
0.000741784
0.0765047
-6.87232e-09
9.99127e-06
0.00152533
0.113722
-8.07709e-10
1.40276e-05
0.00168588
0.125723
1.33181e-05
0.00182426
0.135747
8.0671e-06
0.00192712
0.142961
-8.505e-09
0.00198185
0.146736
-8.08382e-06
0.00198186
0.146736
-1.33339e-05
0.00192713
0.142961
-1.40419e-05
0.00182426
0.135747
-1.0004e-05
0.00168588
0.125723
0.00152534
0.113722
-1.1617e-08
2.42251e-05
0.00237244
0.140798
-1.10739e-09
3.52934e-05
0.0026136
0.155972
3.32421e-05
0.00282011
0.168585
1.99415e-05
0.00297157
0.177635
-1.26965e-08
0.00305175
0.182363
-1.99664e-05
0.00305176
0.182363
-3.32654e-05
0.00297157
0.177635
-3.53143e-05
0.00282012
0.168585
-2.42433e-05
0.00261361
0.155972
0.00237245
0.140797
-1.6227e-08
4.46241e-05
0.0031223
0.158473
-1.44937e-09
6.55332e-05
0.00342445
0.176037
6.16277e-05
0.00368078
0.190554
3.6855e-05
0.00386641
0.200934
-1.70475e-08
0.0039641
0.206347
-3.68883e-05
0.00396411
0.206347
-6.16588e-05
0.00386642
0.200934
-6.55608e-05
0.00368079
0.190554
-4.46476e-05
0.00342446
0.176037
0.00312231
0.158473
-2.05513e-08
7.06256e-05
0.00364766
0.167513
-1.86954e-09
0.000103671
0.00397886
0.186774
9.73656e-05
0.00425632
0.202595
5.81242e-05
0.00445459
0.213864
-2.13857e-08
0.00455822
0.219726
-5.81659e-05
0.00455822
0.219726
-9.74043e-05
0.0044546
0.213864
-0.000103705
0.00425633
0.202595
-7.0654e-05
0.00397887
0.186774
0.00364767
0.167513
-2.44614e-08
0.000101038
0.00387075
0.168701
-2.42083e-09
0.000147914
0.00419506
0.18906
0.0001387
0.00446241
0.205672
8.26716e-05
0.00465077
0.217453
-2.55263e-08
0.00474843
0.223565
-8.27213e-05
0.00474843
0.223565
-0.000138745
0.00465077
0.217453
-0.000147954
0.00446242
0.205672
-0.00010107
0.00419508
0.18906
0.00387076
0.168701
-2.78254e-08
0.000134571
0.00376869
0.162828
-3.08709e-09
0.00019642
0.00405387
0.183787
0.000183717
0.0042846
0.200768
0.000109278
0.00444465
0.212749
-2.92377e-08
0.00452689
0.218945
-0.000109335
0.00452689
0.218945
-0.000183769
0.00444466
0.212749
-0.000196465
0.00428461
0.200768
-0.000134607
0.00405388
0.183787
0.0037687
0.162828
-3.0506e-08
0.000170966
0.00336972
0.150684
-3.88244e-09
0.000247764
0.003594
0.17186
0.000230511
0.00377115
0.188878
0.000136658
0.00389195
0.200809
-3.22256e-08
0.00395345
0.206955
-0.000136721
0.00395345
0.206955
-0.000230568
0.00389196
0.200809
-0.000247812
0.00377115
0.188878
-0.000171004
0.00359401
0.17186
0.00336973
0.150684
-3.24255e-08
0.000205685
0.133068
-4.67834e-09
0.00274773
0.000297076
0.154237
0.00289691
0.000275858
0.171024
0.00301499
0.000163227
0.182701
0.00309594
-3.41425e-08
0.188688
0.00313705
-0.000163293
0.188688
0.00313705
-0.000275918
0.182701
0.00309594
-0.000297127
0.171024
0.003015
-0.000205725
0.154237
0.00289692
0.133068
-3.33727e-08
0.00274774
-1.37809e-06
7.74394e-05
0.0283535
-1.65696e-10
-1.98383e-06
8.5022e-05
0.0312909
-1.59254e-06
9.15114e-05
0.0337612
-8.78665e-07
9.65654e-05
0.035548
-9.56112e-10
9.92357e-05
0.036486
8.76769e-07
9.92358e-05
0.036486
1.5907e-06
9.65657e-05
0.035548
1.98206e-06
9.1512e-05
0.0337612
1.37637e-06
8.50227e-05
0.0312909
7.74399e-05
0.0283535
-1.65897e-09
-1.61481e-06
0.000291639
0.0762921
-3.63948e-10
-2.42907e-06
0.000322153
0.0842225
-1.94443e-06
0.000348517
0.0908714
-1.03169e-06
0.000368511
0.095669
-3.4725e-09
0.000379175
0.0981836
1.02486e-06
0.000379175
0.0981836
1.9379e-06
0.000368512
0.095669
2.42294e-06
0.000348519
0.0908714
1.60914e-06
0.000322155
0.0842225
0.000291641
0.0762921
-5.23461e-09
8.62592e-07
0.000600771
0.113412
-6.12857e-10
1.13487e-06
0.000664638
0.125381
1.34141e-06
0.000719703
0.135375
9.38454e-07
0.000760851
0.142569
-6.39712e-09
0.000782793
0.146333
-9.5101e-07
0.000782794
0.146333
-1.35328e-06
0.000760853
0.142569
-1.14558e-06
0.000719706
0.135375
-8.71571e-07
0.000664643
0.125381
0.000600776
0.113412
-8.78088e-09
6.02031e-06
0.000946344
0.140446
-8.96529e-10
8.90283e-06
0.00104546
0.155589
8.62708e-06
0.00113059
0.168174
5.28234e-06
0.00119343
0.177205
-9.60464e-09
0.00122681
0.181924
-5.30116e-06
0.00122681
0.181924
-8.64475e-06
0.00119343
0.177205
-8.91876e-06
0.0011306
0.168174
-6.03416e-06
0.00104547
0.155589
0.000946351
0.140446
-1.24551e-08
1.41083e-05
0.00126489
0.15814
-1.21534e-09
2.09192e-05
0.00139288
0.175683
1.99127e-05
0.00150192
0.190183
1.20107e-05
0.00158145
0.200554
-1.29561e-08
0.00162346
0.205962
-1.2036e-05
0.00162347
0.205962
-1.99363e-05
0.00158145
0.200554
-2.09402e-05
0.00150193
0.190183
-1.41262e-05
0.00139289
0.175683
0.0012649
0.15814
-1.58903e-08
2.48898e-05
0.00150118
0.167252
-1.58348e-09
3.6814e-05
0.00164542
0.186509
3.48388e-05
0.00176689
0.202332
2.09045e-05
0.00185434
0.213605
-1.63147e-08
0.00190024
0.21947
-2.09363e-05
0.00190024
0.21947
-3.48684e-05
0.00185435
0.213605
-3.684e-05
0.0017669
0.202332
-2.49116e-05
0.00164543
0.186509
0.00150119
0.167252
-1.90023e-08
3.79251e-05
0.00161704
0.168547
-2.03073e-09
5.59055e-05
0.00176201
0.188926
5.27309e-05
0.00188222
0.20556
3.15474e-05
0.00196757
0.217361
-1.95357e-08
0.00201201
0.223485
-3.15854e-05
0.00201201
0.223485
-5.2766e-05
0.00196757
0.217361
-5.59362e-05
0.00188223
0.20556
-3.79504e-05
0.00176202
0.188926
0.00161705
0.168547
-2.17078e-08
5.27324e-05
0.0015961
0.162796
-2.5517e-09
7.74587e-05
0.00172682
0.183798
7.27965e-05
0.00183326
0.200821
4.34264e-05
0.00190765
0.212838
-2.2443e-08
0.00194602
0.219054
-4.34701e-05
0.00194602
0.219054
-7.28366e-05
0.00190765
0.212838
-7.74934e-05
0.00183327
0.200821
-5.27605e-05
0.00172683
0.183797
0.00159611
0.162796
-2.39015e-08
6.92822e-05
0.00144428
0.150767
-3.1667e-09
0.000100894
0.00154977
0.172006
9.4212e-05
0.00163359
0.189085
5.59785e-05
0.00169112
0.201064
-2.48203e-08
0.0017205
0.207237
-5.60267e-05
0.0017205
0.207237
-9.42561e-05
0.00169112
0.201064
-0.000100931
0.0016336
0.189084
-6.93124e-05
0.00154978
0.172006
0.00144429
0.150767
-2.55194e-08
8.53901e-05
0.133237
-3.76223e-09
0.00118932
0.000123961
0.154487
0.0012614
0.000115544
0.171347
0.00131869
6.85212e-05
0.183081
0.00135811
-2.64208e-08
0.189099
0.00137819
-6.85725e-05
0.189099
0.00137819
-0.00011559
0.183081
0.00135812
-0.000124
0.171347
0.00131869
-8.54215e-05
0.154487
0.0012614
0.133237
-2.64232e-08
0.00118933
-3.97178e-07
2.02084e-05
0.0283337
-1.2704e-10
-6.11037e-07
2.23843e-05
0.0312687
-4.8983e-07
2.43705e-05
0.0337367
-2.71629e-07
2.60037e-05
0.0355218
-6.7298e-10
2.68843e-05
0.0364588
2.70293e-07
2.68844e-05
0.0364588
4.88533e-07
2.60039e-05
0.0355218
6.0978e-07
2.43709e-05
0.0337367
3.95952e-07
2.23848e-05
0.0312687
2.02088e-05
0.0283337
-1.18893e-09
-5.09521e-07
9.06003e-05
0.0762222
-2.9844e-10
-8.65807e-07
0.000100857
0.0841444
-7.21007e-07
0.000109984
0.0907857
-3.94101e-07
0.000117085
0.0955776
-2.48029e-09
0.000120916
0.0980892
3.89212e-07
0.000120916
0.0980891
7.1634e-07
0.000117086
0.0955776
8.61412e-07
0.000109986
0.0907857
5.05401e-07
0.000100859
0.0841444
9.06017e-05
0.0762222
-3.79912e-09
3.47378e-07
0.000201316
0.113301
-4.92891e-10
3.22002e-07
0.000224291
0.125257
3.55622e-07
0.000244465
0.135241
2.47352e-07
0.000259807
0.142426
-4.60405e-09
0.00026806
0.146186
-2.56393e-07
0.000268061
0.146186
-3.64188e-07
0.000259809
0.142426
-3.29734e-07
0.000244468
0.135241
-3.5388e-07
0.000224294
0.125257
0.00020132
0.113301
-6.41121e-09
2.26212e-06
0.000332006
0.140313
-7.16089e-10
3.19066e-06
0.000369264
0.155443
3.03649e-06
0.000401713
0.168017
1.84301e-06
0.000426008
0.17704
-6.95346e-09
0.00043901
0.181755
-1.85664e-06
0.000439011
0.181755
-3.04931e-06
0.000426011
0.17704
-3.20226e-06
0.000401717
0.168017
-2.27222e-06
0.000369269
0.155443
0.000332011
0.140313
-9.1572e-09
5.39533e-06
0.000458537
0.158008
-9.64988e-10
7.86028e-06
0.000508286
0.175541
7.4255e-06
0.000551186
0.190034
4.46105e-06
0.000582866
0.2004
-9.42512e-09
0.000599718
0.205806
-4.47949e-06
0.000599719
0.205806
-7.44274e-06
0.00058287
0.2004
-7.87569e-06
0.000551191
0.190034
-5.40852e-06
0.000508292
0.175541
0.000458544
0.158008
-1.1757e-08
9.70366e-06
0.000558198
0.167142
-1.24861e-09
1.42561e-05
0.000615835
0.186397
1.34487e-05
0.000664913
0.202219
8.05561e-06
0.000700658
0.213493
-1.19186e-08
0.000719536
0.219358
-8.07888e-06
0.000719537
0.219358
-1.34703e-05
0.000700662
0.213493
-1.42753e-05
0.000664919
0.202219
-9.71977e-06
0.000615842
0.186397
0.000558206
0.167142
-1.41426e-08
1.50455e-05
0.000613812
0.168476
-1.58637e-09
2.21422e-05
0.000673133
0.188861
2.08653e-05
0.000722851
0.205504
1.24757e-05
0.000758527
0.217312
-1.43276e-08
0.000777211
0.22344
-1.25036e-05
0.000777212
0.22344
-2.08912e-05
0.000758531
0.217312
-2.21648e-05
0.000722857
0.205503
-1.50643e-05
0.00067314
0.188861
0.00061382
0.168476
-1.62516e-08
2.12375e-05
0.000616385
0.162772
-1.97e-09
3.12099e-05
0.000671057
0.18379
2.93342e-05
0.000716007
0.20083
1.7499e-05
0.000747711
0.212861
-1.65244e-08
0.000764147
0.219085
-1.75311e-05
0.000764148
0.219085
-2.93638e-05
0.000747715
0.212861
-3.12357e-05
0.000716013
0.20083
-2.12585e-05
0.000671065
0.18379
0.000616393
0.162772
-1.8007e-08
2.82047e-05
0.000566061
0.150789
-2.40423e-09
4.11127e-05
0.000611156
0.172053