/*--------------------------------*- C++ -*----------------------------------*\
| =========                 |                                                 |
| \\      /  F ield         | OpenFOAM: The Open Source CFD Toolbox           |
|  \\    /   O peration     | Version:  2106                                  |
|   \\  /    A nd           | Website:  www.openfoam.com                      |
|    \\/     M anipulation  |                                                 |
\*---------------------------------------------------------------------------*/
FoamFile
{
    version     2.0;
    format      ascii;
    arch        "LSB;label=32;scalar=64";
    class       volVectorField;
    location    "0.8";
    object      U;
}
// * * * * * * * * * * * * * * * * * * * * * * * * * * * * * * * * * * * * * //

dimensions      [0 1 -1 0 0 0 0];

internalField   nonuniform List<vector> 
10000
(
(0.0625636 0.0737211 0.345092)
(0.0533593 0.0838415 0.359571)
(0.0398496 0.092993 0.370934)
(0.0247212 0.0993755 0.378783)
(0.00837791 0.102675 0.382771)
(-0.00837791 0.102675 0.382771)
(-0.0247212 0.0993755 0.378783)
(-0.0398496 0.092993 0.370934)
(-0.0533593 0.0838415 0.359571)
(-0.0625636 0.0737211 0.345092)
(0.172067 0.204139 0.727825)
(0.145247 0.231383 0.747474)
(0.108436 0.255345 0.762113)
(0.0670898 0.271933 0.772011)
(0.0227097 0.280488 0.776959)
(-0.0227097 0.280488 0.776959)
(-0.0670898 0.271933 0.772011)
(-0.108436 0.255345 0.762113)
(-0.145247 0.231383 0.747474)
(-0.172067 0.204139 0.727825)
(0.222649 0.264375 0.923735)
(0.185841 0.296088 0.939562)
(0.137857 0.32378 0.950626)
(0.0848707 0.342725 0.957928)
(0.0286579 0.352432 0.96151)
(-0.028658 0.352432 0.96151)
(-0.0848707 0.342725 0.957928)
(-0.137857 0.32378 0.950626)
(-0.185841 0.296088 0.939562)
(-0.222649 0.264375 0.923735)
(0.237679 0.281767 1.02285)
(0.196442 0.311651 1.03335)
(0.144821 0.337799 1.04002)
(0.0887457 0.355487 1.04428)
(0.0298985 0.364492 1.04632)
(-0.0298986 0.364492 1.04632)
(-0.0887457 0.355487 1.04428)
(-0.144821 0.337799 1.04002)
(-0.196442 0.311651 1.03335)
(-0.237679 0.281767 1.02285)
(0.23575 0.278984 1.0712)
(0.193249 0.30499 1.07716)
(0.141718 0.327882 1.08028)
(0.0864959 0.343234 1.08216)
(0.0290845 0.351002 1.08301)
(-0.0290845 0.351002 1.08301)
(-0.0864959 0.343234 1.08216)
(-0.141718 0.327882 1.08028)
(-0.193249 0.30499 1.07716)
(-0.23575 0.278984 1.0712)
(0.224752 0.265484 1.09228)
(0.182841 0.286899 1.09486)
(0.13345 0.305901 1.09551)
(0.0811494 0.318571 1.09576)
(0.0272388 0.324945 1.09581)
(-0.0272389 0.324945 1.09581)
(-0.0811495 0.318571 1.09576)
(-0.13345 0.305901 1.09551)
(-0.182841 0.286899 1.09486)
(-0.224752 0.265484 1.09228)
(0.208425 0.245569 1.09889)
(0.168274 0.262153 1.09917)
(0.122268 0.277014 1.09826)
(0.0740897 0.286904 1.0975)
(0.0248274 0.291858 1.09707)
(-0.0248275 0.291858 1.09707)
(-0.0740898 0.286904 1.0975)
(-0.122268 0.277014 1.09826)
(-0.168275 0.262153 1.09917)
(-0.208425 0.245569 1.09889)
(0.189097 0.221962 1.09821)
(0.151495 0.233757 1.09703)
(0.109612 0.244465 1.09523)
(0.0662043 0.251627 1.09392)
(0.02215 0.255214 1.09323)
(-0.0221501 0.255214 1.09323)
(-0.0662044 0.251627 1.09392)
(-0.109612 0.244465 1.09523)
(-0.151495 0.233757 1.09703)
(-0.189097 0.221962 1.09821)
(0.168301 0.19645 1.09422)
(0.133872 0.203643 1.09216)
(0.0964694 0.210324 1.08995)
(0.0580843 0.214922 1.0884)
(0.0194037 0.217245 1.08761)
(-0.0194038 0.217245 1.08761)
(-0.0580844 0.214922 1.0884)
(-0.0964695 0.210324 1.08995)
(-0.133872 0.203643 1.09216)
(-0.168302 0.19645 1.09422)
(0.1472 0.170684 1.08918)
(0.116608 0.171786 1.08665)
(0.0834467 0.175068 1.0843)
(0.0500581 0.177459 1.08271)
(0.0166928 0.178688 1.08191)
(-0.0166929 0.178688 1.08191)
(-0.0500582 0.177459 1.08271)
(-0.0834469 0.175068 1.0843)
(-0.116608 0.171786 1.08665)
(-0.1472 0.170684 1.08918)
(0.0111957 0.0143011 0.266495)
(0.009406 0.0175919 0.278756)
(0.00710235 0.0202355 0.288796)
(0.00449602 0.0220478 0.295785)
(0.00153831 0.022992 0.299362)
(-0.00153833 0.022992 0.299362)
(-0.00449603 0.0220478 0.295785)
(-0.00710236 0.0202355 0.288796)
(-0.00940601 0.0175919 0.278756)
(-0.0111957 0.0143011 0.266495)
(0.0544223 0.0658481 0.629462)
(0.0467323 0.0792241 0.651406)
(0.0357657 0.0906858 0.669004)
(0.0226113 0.0988072 0.681107)
(0.00773779 0.10307 0.68725)
(-0.00773783 0.10307 0.68725)
(-0.0226113 0.0988072 0.681107)
(-0.0357657 0.0906857 0.669004)
(-0.0467324 0.0792241 0.651406)
(-0.0544223 0.0658481 0.629462)
(0.0977993 0.116814 0.876416)
(0.0834411 0.138156 0.900238)
(0.0635241 0.156471 0.918923)
(0.03992 0.169398 0.931618)
(0.0136205 0.176149 0.938011)
(-0.0136206 0.176149 0.938011)
(-0.0399201 0.169398 0.931618)
(-0.0635242 0.156471 0.918923)
(-0.0834412 0.138156 0.900238)
(-0.0977994 0.116814 0.876416)
(0.133894 0.158751 1.04418)
(0.113268 0.184889 1.06618)
(0.0856779 0.207215 1.08302)
(0.053537 0.222859 1.09432)
(0.0182148 0.230984 1.09996)
(-0.0182149 0.230984 1.09996)
(-0.0535371 0.222859 1.09432)
(-0.085678 0.207215 1.08302)
(-0.113268 0.184889 1.06618)
(-0.133895 0.158751 1.04418)
(0.159745 0.188323 1.15723)
(0.133981 0.216201 1.17585)
(0.100711 0.239853 1.18972)
(0.0626074 0.256308 1.19891)
(0.0212461 0.264807 1.20346)
(-0.0212463 0.264807 1.20346)
(-0.0626075 0.256308 1.19891)
(-0.100712 0.239853 1.18972)
(-0.133981 0.216201 1.17585)
(-0.159745 0.188323 1.15723)
(0.175393 0.205702 1.23229)
(0.145863 0.232833 1.24712)
(0.108983 0.255651 1.25784)
(0.0674264 0.27142 1.26483)
(0.0228271 0.279521 1.26827)
(-0.0228273 0.279521 1.26827)
(-0.0674266 0.27142 1.26483)
(-0.108983 0.255651 1.25784)
(-0.145863 0.232833 1.24712)
(-0.175393 0.205702 1.23229)
(0.181896 0.212229 1.28118)
(0.149981 0.236713 1.29242)
(0.111404 0.257063 1.30027)
(0.0686139 0.271041 1.30531)
(0.0231771 0.278189 1.30776)
(-0.0231773 0.278189 1.30776)
(-0.0686141 0.271041 1.30531)
(-0.111405 0.257063 1.30027)
(-0.149981 0.236713 1.29242)
(-0.181896 0.212229 1.28118)
(0.180594 0.209535 1.31224)
(0.14762 0.229989 1.32038)
(0.10903 0.246715 1.32586)
(0.0668656 0.25815 1.32931)
(0.0225386 0.263979 1.33096)
(-0.0225388 0.263979 1.33096)
(-0.0668658 0.25815 1.32931)
(-0.10903 0.246715 1.32586)
(-0.147621 0.229989 1.32038)
(-0.180594 0.209535 1.31224)
(0.172945 0.199291 1.33131)
(0.140198 0.214783 1.33697)
(0.102962 0.227093 1.34061)
(0.0628746 0.235526 1.34284)
(0.0211484 0.239821 1.34388)
(-0.0211486 0.239821 1.34388)
(-0.0628749 0.235526 1.34284)
(-0.102962 0.227093 1.34061)
(-0.140198 0.214783 1.33697)
(-0.172945 0.199291 1.33131)
(0.160514 0.184305 1.3425)
(0.129257 0.192242 1.34633)
(0.0941501 0.199786 1.34861)
(0.0572043 0.204989 1.34993)
(0.019194 0.207637 1.35052)
(-0.0191942 0.207637 1.35052)
(-0.0572046 0.204989 1.34993)
(-0.0941503 0.199786 1.34861)
(-0.129258 0.192242 1.34633)
(-0.160514 0.184305 1.3425)
(0.00112215 0.00125319 0.157598)
(0.0011333 0.00160034 0.165896)
(0.000883443 0.00200855 0.172825)
(0.00059137 0.00231092 0.17773)
(0.000206068 0.00247848 0.180268)
(-0.000206083 0.00247848 0.180268)
(-0.000591384 0.00231092 0.17773)
(-0.000883456 0.00200855 0.172825)
(-0.00113331 0.00160033 0.165896)
(-0.00112216 0.00125319 0.157598)
(0.0180225 0.0209129 0.441552)
(0.0162077 0.0255137 0.461752)
(0.0126849 0.0298432 0.478342)
(0.008147 0.033041 0.489985)
(0.00280729 0.0347588 0.495978)
(-0.00280734 0.0347588 0.495978)
(-0.00814704 0.033041 0.489985)
(-0.0126849 0.0298432 0.478342)
(-0.0162077 0.0255137 0.461752)
(-0.0180225 0.0209129 0.441552)
(0.0410836 0.0478206 0.685104)
(0.0362854 0.0574529 0.712679)
(0.02819 0.0662389 0.734964)
(0.0179575 0.0726634 0.750475)
(0.00616562 0.0760848 0.758419)
(-0.0061657 0.0760848 0.758419)
(-0.0179576 0.0726634 0.750475)
(-0.0281901 0.0662389 0.734964)
(-0.0362855 0.0574529 0.712679)
(-0.0410836 0.0478205 0.685104)
(0.0659669 0.0768454 0.887715)
(0.0574996 0.0910304 0.918895)
(0.0443418 0.103722 0.943674)
(0.0280657 0.112904 0.960776)
(0.0096071 0.117759 0.96949)
(-0.00960722 0.117759 0.96949)
(-0.0280659 0.112904 0.960776)
(-0.0443419 0.103722 0.943674)
(-0.0574997 0.0910303 0.918895)
(-0.0659669 0.0768454 0.887715)
(0.0881993 0.102627 1.05282)
(0.0760066 0.119897 1.08482)
(0.0581985 0.135121 1.10982)
(0.0366294 0.146029 1.12692)
(0.0125045 0.15176 1.1356)
(-0.0125046 0.15176 1.1356)
(-0.0366296 0.146029 1.12692)
(-0.0581986 0.135121 1.10982)
(-0.0760067 0.119897 1.08482)
(-0.0881994 0.102627 1.05282)
(0.105537 0.122484 1.1853)
(0.0899948 0.141087 1.21624)
(0.0684384 0.157262 1.24)
(0.0428503 0.16875 1.25613)
(0.0145911 0.174749 1.26426)
(-0.0145913 0.174749 1.26426)
(-0.0428505 0.16875 1.25613)
(-0.0684385 0.157262 1.24)
(-0.089995 0.141087 1.21624)
(-0.105537 0.122484 1.1853)
(0.117129 0.135448 1.2903)
(0.0988665 0.153697 1.31903)
(0.0746811 0.169329 1.34073)
(0.0465263 0.180342 1.35535)
(0.0158041 0.186062 1.36268)
(-0.0158044 0.186062 1.36268)
(-0.0465265 0.180342 1.35535)
(-0.0746813 0.169329 1.34073)
(-0.0988667 0.153697 1.31903)
(-0.117129 0.135448 1.2903)
(0.12285 0.141407 1.37259)
(0.102653 0.157825 1.39852)
(0.0770275 0.17164 1.41781)
(0.047755 0.1813 1.4307)
(0.0161825 0.186294 1.43715)
(-0.0161827 0.186294 1.43715)
(-0.0477553 0.1813 1.4307)
(-0.0770277 0.17164 1.41781)
(-0.102654 0.157825 1.39852)
(-0.12285 0.141407 1.37259)
(0.123097 0.140797 1.43628)
(0.101847 0.154203 1.45928)
(0.0758922 0.165155 1.47615)
(0.0468092 0.172782 1.48731)
(0.0158214 0.176707 1.49285)
(-0.0158217 0.176707 1.49285)
(-0.0468095 0.172782 1.48731)
(-0.0758925 0.165155 1.47615)
(-0.101847 0.154203 1.45928)
(-0.123098 0.140797 1.43628)
(0.118689 0.135432 1.4847)
(0.097241 0.143492 1.50529)
(0.0717466 0.150781 1.51982)
(0.0439777 0.15583 1.52929)
(0.0148191 0.158414 1.53396)
(-0.0148194 0.158414 1.53396)
(-0.043978 0.15583 1.52929)
(-0.0717469 0.150781 1.51982)
(-0.0972413 0.143492 1.50529)
(-0.11869 0.135432 1.4847)
(0.000713512 0.000937042 0.137849)
(0.000557744 0.00117492 0.144654)
(0.000381995 0.00134362 0.150195)
(0.000236915 0.00144348 0.154085)
(7.9337e-05 0.00149348 0.156091)
(-7.93507e-05 0.00149347 0.156091)
(-0.000236928 0.00144348 0.154085)
(-0.000382007 0.00134362 0.150195)
(-0.000557755 0.00117491 0.144654)
(-0.000713521 0.000937035 0.137849)
(0.00704459 0.00842308 0.395303)
(0.00611751 0.0103822 0.413365)
(0.00470444 0.0120776 0.427987)
(0.0030015 0.0132947 0.438222)
(0.00103083 0.0139423 0.443489)
(-0.00103088 0.0139423 0.443489)
(-0.00300154 0.0132947 0.438222)
(-0.00470448 0.0120775 0.427987)
(-0.00611754 0.0103822 0.413365)
(-0.00704462 0.00842306 0.395303)
(0.0172783 0.0204008 0.6284)
(0.0150734 0.0248395 0.655066)
(0.011666 0.0287351 0.676488)
(0.00743244 0.0315636 0.691419)
(0.00255247 0.0330683 0.699082)
(-0.00255255 0.0330683 0.699082)
(-0.00743251 0.0315636 0.691419)
(-0.0116661 0.0287351 0.676488)
(-0.0150734 0.0248394 0.655066)
(-0.0172783 0.0204007 0.6284)
(0.029647 0.0348068 0.835221)
(0.0257795 0.0418734 0.867811)
(0.0199263 0.0480749 0.893745)
(0.0126548 0.052573 0.911732)
(0.00433984 0.0549586 0.920935)
(-0.00433996 0.0549586 0.920935)
(-0.0126549 0.052573 0.911732)
(-0.0199264 0.0480749 0.893745)
(-0.0257796 0.0418734 0.867811)
(-0.0296471 0.0348067 0.835221)
(0.0420991 0.0492055 1.01572)
(0.0363817 0.0584489 1.05181)
(0.0280084 0.0665147 1.08024)
(0.0177173 0.0723359 1.09984)
(0.00606445 0.0754101 1.10984)
(-0.00606461 0.0754101 1.10984)
(-0.0177174 0.0723359 1.09984)
(-0.0280086 0.0665147 1.08023)
(-0.0363818 0.0584489 1.05181)
(-0.0420992 0.0492054 1.01572)
(0.0531424 0.061838 1.17106)
(0.0455771 0.0724594 1.20863)
(0.0349027 0.0816413 1.23789)
(0.0219819 0.0882242 1.25796)
(0.00750806 0.091684 1.26816)
(-0.00750826 0.091684 1.26816)
(-0.0219821 0.0882242 1.25796)
(-0.0349028 0.0816412 1.23789)
(-0.0455772 0.0724594 1.20863)
(-0.0531425 0.0618379 1.17106)
(0.0617901 0.071563 1.30303)
(0.0525422 0.082608 1.34048)
(0.0399959 0.092035 1.36931)
(0.025073 0.0987435 1.38899)
(0.00854421 0.102251 1.39896)
(-0.00854444 0.102251 1.39896)
(-0.0250732 0.0987435 1.38899)
(-0.0399961 0.0920349 1.36931)
(-0.0525424 0.0826079 1.34048)
(-0.0617903 0.0715629 1.30303)
(0.0674498 0.0776972 1.41368)
(0.0568287 0.0881907 1.44982)
(0.0429811 0.0970004 1.47736)
(0.026814 0.103219 1.49604)
(0.00911533 0.106454 1.50547)
(-0.00911559 0.106454 1.50547)
(-0.0268143 0.103219 1.49604)
(-0.0429814 0.0970003 1.47736)
(-0.056829 0.0881907 1.44982)
(-0.06745 0.0776972 1.41368)
(0.0699252 0.0799765 1.50497)
(0.0583526 0.0890379 1.53914)
(0.04382 0.096432 1.56486)
(0.0271898 0.101614 1.58216)
(0.00921789 0.104294 1.59084)
(-0.00921818 0.104294 1.59084)
(-0.02719 0.101614 1.58216)
(-0.0438202 0.096432 1.56486)
(-0.0583529 0.0890379 1.53914)
(-0.0699254 0.0799765 1.50497)
(0.0693963 0.0791897 1.57859)
(0.0573035 0.0852126 1.61105)
(0.0425941 0.0904472 1.63458)
(0.0262533 0.0940807 1.65019)
(0.00887088 0.0959458 1.65796)
(-0.00887119 0.0959458 1.65796)
(-0.0262536 0.0940807 1.65019)
(-0.0425944 0.0904472 1.63458)
(-0.0573038 0.0852126 1.61105)
(-0.0693966 0.0791897 1.57859)
(0.000130538 0.000142765 0.126917)
(0.000120931 0.000187121 0.133256)
(8.93603e-05 0.000232569 0.138409)
(6.11335e-05 0.000264426 0.142033)
(2.11141e-05 0.000282489 0.143903)
(-2.1126e-05 0.000282488 0.143903)
(-6.11449e-05 0.000264424 0.142033)
(-8.93708e-05 0.000232565 0.138409)
(-0.000120941 0.000187115 0.133256)
(-0.000130546 0.000142759 0.126917)
(0.00251365 0.00290749 0.368088)
(0.00224838 0.00360446 0.385333)
(0.00176112 0.00424637 0.399303)
(0.00113825 0.00472399 0.409106)
(0.000393035 0.00498326 0.414158)
(-0.000393076 0.00498326 0.414158)
(-0.00113829 0.00472399 0.409106)
(-0.00176116 0.00424636 0.399303)
(-0.00224841 0.00360444 0.385332)
(-0.00251368 0.00290747 0.368088)
(0.00684748 0.00794358 0.591705)
(0.00608382 0.0097382 0.617882)
(0.00476876 0.0113679 0.638977)
(0.00306463 0.0125805 0.653737)
(0.00105662 0.013234 0.661331)
(-0.00105669 0.013234 0.661331)
(-0.0030647 0.0125805 0.653737)
(-0.00476882 0.0113679 0.638976)
(-0.00608388 0.00973817 0.617882)
(-0.00684753 0.00794355 0.591705)
(0.012568 0.0145822 0.796263)
(0.0110934 0.0176821 0.829313)
(0.00867032 0.0204711 0.855763)
(0.00554829 0.0225356 0.874208)
(0.00190962 0.0236428 0.883677)
(-0.00190973 0.0236428 0.883677)
(-0.0055484 0.0225356 0.874208)
(-0.00867042 0.0204711 0.855763)
(-0.0110935 0.0176821 0.829313)
(-0.0125681 0.0145822 0.796262)
(0.0187994 0.0217771 0.981022)
(0.0164739 0.0260963 1.01893)
(0.0128181 0.0299465 1.04903)
(0.00816805 0.0327777 1.06994)
(0.00280583 0.0342885 1.08064)
(-0.00280598 0.0342885 1.08064)
(-0.00816819 0.0327776 1.06994)
(-0.0128182 0.0299465 1.04903)
(-0.0164741 0.0260963 1.01893)
(-0.0187995 0.0217771 0.981021)
(0.0247713 0.0286138 1.14586)
(0.021535 0.0338446 1.18676)
(0.0166655 0.0384576 1.21895)
(0.0105728 0.0418243 1.24122)
(0.00362415 0.0436118 1.25259)
(-0.00362433 0.0436118 1.25259)
(-0.0105729 0.0418243 1.24122)
(-0.0166657 0.0384576 1.21895)
(-0.0215351 0.0338446 1.18676)
(-0.0247714 0.0286138 1.14586)
(0.0298672 0.0343703 1.29108)
(0.0257402 0.0400614 1.33331)
(0.0197984 0.0450152 1.36625)
(0.0125014 0.0486013 1.38893)
(0.00427531 0.050495 1.40048)
(-0.00427553 0.050495 1.40048)
(-0.0125016 0.0486013 1.38893)
(-0.0197986 0.0450151 1.36625)
(-0.0257404 0.0400614 1.33331)
(-0.0298674 0.0343703 1.29108)
(0.0336327 0.0385143 1.41723)
(0.0287154 0.0441446 1.4594)
(0.0219395 0.0489666 1.49199)
(0.0137835 0.0524253 1.51432)
(0.00470186 0.0542411 1.52566)
(-0.0047021 0.0542411 1.52566)
(-0.0137838 0.0524253 1.51432)
(-0.0219398 0.0489666 1.49199)
(-0.0287156 0.0441446 1.4594)
(-0.0336329 0.0385143 1.41723)
(0.0358225 0.040739 1.52487)
(0.0302794 0.0457959 1.56604)
(0.0229566 0.0500042 1.5975)
(0.0143382 0.0529928 1.61888)
(0.00487654 0.0545506 1.62967)
(-0.00487681 0.0545506 1.62967)
(-0.0143384 0.0529928 1.61888)
(-0.0229569 0.0500042 1.5975)
(-0.0302796 0.0457959 1.56604)
(-0.0358227 0.0407389 1.52487)
(0.0364076 0.0413516 1.61439)
(0.0303978 0.0449259 1.65471)
(0.0227896 0.0480182 1.68436)
(0.0141287 0.0501826 1.70422)
(0.00478754 0.0512998 1.71417)
(-0.00478782 0.0512998 1.71417)
(-0.014129 0.0501826 1.70422)
(-0.0227898 0.0480182 1.68436)
(-0.030398 0.0449259 1.65471)
(-0.0364079 0.0413516 1.61439)
(7.96842e-05 0.000107519 0.123949)
(5.58168e-05 0.000136391 0.13009)
(3.4238e-05 0.000153121 0.135051)
(2.09519e-05 0.000161397 0.138533)
(6.80787e-06 0.000165361 0.140328)
(-6.81754e-06 0.00016536 0.140328)
(-2.09614e-05 0.000161395 0.138533)
(-3.42465e-05 0.000153118 0.135051)
(-5.58247e-05 0.000136387 0.13009)
(-7.96909e-05 0.000107514 0.123949)
(0.00104053 0.00124253 0.359591)
(0.000893879 0.00154113 0.37639)
(0.000683663 0.00179248 0.389941)
(0.000436624 0.00197291 0.399441)
(0.000149874 0.00206941 0.404334)
(-0.000149908 0.00206941 0.404334)
(-0.000436658 0.00197291 0.399441)
(-0.000683693 0.00179247 0.389941)
(-0.000893907 0.00154112 0.37639)
(-0.00104055 0.00124251 0.359591)
(0.00286778 0.00337544 0.57929)
(0.0025047 0.00415192 0.605037)
(0.0019448 0.00482949 0.625732)
(0.00124435 0.00532687 0.640211)
(0.000428164 0.00559366 0.647661)
(-0.000428226 0.00559366 0.647661)
(-0.00124441 0.00532686 0.640211)
(-0.00194486 0.00482948 0.625731)
(-0.00250475 0.0041519 0.605036)
(-0.00286782 0.00337542 0.57929)
(0.00537581 0.00628836 0.782319)
(0.00470833 0.00766638 0.815257)
(0.00366708 0.00888095 0.841598)
(0.00234419 0.00977607 0.859983)
(0.000806545 0.0102557 0.869428)
(-0.000806636 0.0102557 0.869428)
(-0.00234428 0.00977606 0.859983)
(-0.00366717 0.00888093 0.841598)
(-0.00470841 0.00766635 0.815257)
(-0.00537588 0.00628833 0.782319)
(0.00823915 0.00959328 0.968181)
(0.00719989 0.0115752 1.00656)
(0.00560063 0.0133224 1.03706)
(0.00357179 0.0146074 1.05828)
(0.00122764 0.0152941 1.06917)
(-0.00122776 0.015294 1.06917)
(-0.00357191 0.0146074 1.05828)
(-0.00560074 0.0133224 1.03706)
(-0.00719999 0.0115752 1.00656)
(-0.00823923 0.00959325 0.968181)
(0.0111261 0.0128975 1.1366)
(0.0096746 0.0153759 1.17872)
(0.00749935 0.0175489 1.21195)
(0.00476689 0.0191392 1.23501)
(0.00163578 0.0199856 1.2468)
(-0.00163593 0.0199856 1.2468)
(-0.00476704 0.0191392 1.23501)
(-0.00749948 0.0175489 1.21195)
(-0.00967473 0.0153758 1.17872)
(-0.0111262 0.0128975 1.1366)
(0.0137304 0.0158418 1.28749)
(0.0118582 0.0186228 1.33174)
(0.00914657 0.0210376 1.3664)
(0.0057905 0.0227928 1.39036)
(0.00198306 0.0237226 1.40259)
(-0.00198324 0.0237226 1.40259)
(-0.00579068 0.0227928 1.39036)
(-0.00914674 0.0210376 1.3664)
(-0.0118583 0.0186228 1.33174)
(-0.0137305 0.0158418 1.28749)
(0.0157932 0.0181214 1.42082)
(0.0135291 0.0209559 1.46579)
(0.0103729 0.0233832 1.50073)
(0.00653606 0.0251321 1.52478)
(0.00223305 0.0260533 1.53702)
(-0.00223326 0.0260533 1.53702)
(-0.00653627 0.0251321 1.52478)
(-0.010373 0.0233832 1.50073)
(-0.0135293 0.0209559 1.46579)
(-0.0157933 0.0181214 1.42082)
(0.0171438 0.0195231 1.53651)
(0.0145496 0.0221466 1.58116)
(0.0110729 0.0243338 1.61551)
(0.00693704 0.0258931 1.63895)
(0.00236305 0.0267083 1.65081)
(-0.00236328 0.0267083 1.65081)
(-0.00693726 0.0258931 1.63895)
(-0.0110731 0.0243338 1.6155)
(-0.0145497 0.0221466 1.58116)
(-0.017144 0.0195231 1.53651)
(0.0177175 0.0201464 1.63425)
(0.0148518 0.0220833 1.67869)
(0.0111779 0.0237443 1.71159)
(0.00695059 0.0249103 1.73373)
(0.00235874 0.0255135 1.74485)
(-0.00235898 0.0255135 1.74485)
(-0.00695082 0.0249103 1.73373)
(-0.0111782 0.0237443 1.71159)
(-0.014852 0.0220833 1.67869)
(-0.0177177 0.0201464 1.63425)
(1.22742e-05 1.50956e-05 0.12245)
(8.36331e-06 2.06281e-05 0.128524)
(4.69889e-06 2.42629e-05 0.133426)
(3.4623e-06 2.63487e-05 0.136869)
(1.16181e-06 2.75604e-05 0.138644)
(-1.16925e-06 2.75598e-05 0.138644)
(-3.46953e-06 2.6347e-05 0.136869)
(-4.70564e-06 2.42603e-05 0.133426)
(-8.36963e-06 2.06245e-05 0.128523)
(-1.22794e-05 1.50913e-05 0.12245)
(0.000361814 0.000422763 0.355355)
(0.0003159 0.000527709 0.371984)
(0.000244701 0.00061927 0.385391)
(0.000157973 0.000686934 0.394792)
(5.44808e-05 0.000723706 0.399635)
(-5.45075e-05 0.000723704 0.399635)
(-0.000157999 0.00068693 0.394792)
(-0.000244725 0.000619263 0.38539)
(-0.000315922 0.000527699 0.371983)
(-0.000361833 0.000422751 0.355355)
(0.00108052 0.00125717 0.57296)
(0.00095311 0.00155497 0.598519)
(0.00074612 0.00181989 0.619062)
(0.000480354 0.00201778 0.633443)
(0.000165756 0.0021249 0.640843)
(-0.000165805 0.0021249 0.640843)
(-0.000480401 0.00201777 0.633442)
(-0.000746164 0.00181988 0.619062)
(-0.00095315 0.00155496 0.598519)
(-0.00108055 0.00125715 0.572959)
(0.00211873 0.00245863 0.774862)
(0.00187091 0.00301442 0.80772)
(0.00146724 0.00351116 0.834009)
(0.000942665 0.00388228 0.852375)
(0.000325116 0.00408262 0.861815)
(-0.000325189 0.00408262 0.861815)
(-0.000942735 0.00388227 0.852375)
(-0.00146731 0.00351115 0.834009)
(-0.00187097 0.00301441 0.807719)
(-0.00211878 0.00245861 0.774862)
(0.00335539 0.003882 0.960738)
(0.00295517 0.00471211 0.999267)
(0.002314 0.00545284 1.02992)
(0.00148279 0.00600437 1.05129)
(0.000510828 0.0063011 1.06225)
(-0.000510926 0.0063011 1.06225)
(-0.00148289 0.00600436 1.05129)
(-0.00231409 0.00545283 1.02992)
(-0.00295525 0.00471209 0.999266)
(-0.00335546 0.00388197 0.960738)
(0.00465315 0.00536414 1.13034)
(0.00407823 0.0064353 1.17294)
(0.00318233 0.00738554 1.20662)
(0.00203246 0.00808917 1.23002)
(0.000699082 0.00846619 1.24201)
(-0.000699205 0.00846619 1.24201)
(-0.00203258 0.00808916 1.23002)
(-0.00318244 0.00738553 1.20661)
(-0.00407833 0.00643528 1.17294)
(-0.00465324 0.00536412 1.13034)
(0.00587348 0.00674219 1.28346)
(0.00511399 0.00797752 1.32858)
(0.00397118 0.00906296 1.36402)
(0.00252611 0.00986095 1.38857)
(0.000867146 0.0102864 1.40112)
(-0.000867292 0.0102864 1.40112)
(-0.00252625 0.00986094 1.38857)
(-0.00397131 0.00906295 1.36402)
(-0.00511412 0.00797751 1.32858)
(-0.00587359 0.00674217 1.28346)
(0.00688984 0.00786681 1.41988)
(0.0059514 0.00915752 1.46612)
(0.00459364 0.0102763 1.50218)
(0.00290817 0.0110911 1.52705)
(0.000995873 0.0115229 1.53973)
(-0.00099604 0.0115229 1.53973)
(-0.00290833 0.0110911 1.52705)
(-0.00459379 0.0102763 1.50218)
(-0.00595154 0.00915751 1.46612)
(-0.00688996 0.0078668 1.41988)
(0.00761052 0.00862501 1.53924)
(0.00651207 0.00984883 1.58554)
(0.00498784 0.0108809 1.62129)
(0.00313875 0.0116233 1.64576)
(0.00107151 0.0120134 1.65816)
(-0.00107169 0.0120134 1.65816)
(-0.00313893 0.0116233 1.64575)
(-0.00498801 0.0108809 1.62129)
(-0.00651223 0.00984883 1.58554)
(-0.00761066 0.00862501 1.53924)
(0.00798885 0.00904946 1.64088)
(0.00674466 0.00998441 1.68735)
(0.0051059 0.0107847 1.72188)
(0.00318753 0.0113499 1.74519)
(0.00108378 0.0116433 1.75691)
(-0.00108398 0.0116433 1.75691)
(-0.00318772 0.0113499 1.74518)
(-0.00510608 0.0107847 1.72188)
(-0.00674483 0.00998441 1.68735)
(-0.007989 0.00904947 1.64088)
(7.76383e-06 1.23458e-05 0.122053)
(3.22448e-06 1.61033e-05 0.1281)
(6.40448e-07 1.72194e-05 0.132975)
(1.56735e-07 1.72463e-05 0.136398)
(-2.84418e-08 1.71579e-05 0.138163)
(2.29652e-08 1.71575e-05 0.138163)
(-1.62049e-07 1.72451e-05 0.136398)
(-6.45441e-07 1.72175e-05 0.132975)
(-3.22925e-06 1.61006e-05 0.128099)
(-7.76772e-06 1.23426e-05 0.122053)
(0.000139129 0.000169052 0.354058)
(0.00011534 0.000211369 0.370609)
(8.64509e-05 0.000244692 0.383942)
(5.48515e-05 0.000268155 0.39329)
(1.87556e-05 0.000280635 0.398104)
(-1.87754e-05 0.000280634 0.398104)
(-5.48707e-05 0.000268152 0.393289)
(-8.64689e-05 0.000244686 0.383942)
(-0.000115357 0.000211362 0.370609)
(-0.000139143 0.000169043 0.354058)
(0.000418394 0.000495067 0.570877)
(0.000361328 0.000614218 0.596338)
(0.00027928 0.000715746 0.616789)
(0.000178624 0.000790316 0.631105)
(6.14466e-05 0.000830389 0.638472)
(-6.14831e-05 0.000830388 0.638472)
(-0.00017866 0.000790311 0.631105)
(-0.000279313 0.000715738 0.616789)
(-0.000361359 0.000614207 0.596338)
(-0.00041842 0.000495054 0.570877)
(0.00083265 0.000975066 0.772295)
(0.000727757 0.0012006 0.805085)
(0.000567488 0.00139773 0.831312)
(0.000363639 0.00154403 0.849637)
(0.000125268 0.0016228 0.859056)
(-0.000125323 0.0016228 0.859056)
(-0.000363693 0.00154402 0.849636)
(-0.000567538 0.00139772 0.831312)
(-0.000727803 0.00120059 0.805084)
(-0.000832689 0.000975049 0.772295)
(0.00134159 0.00156085 0.95811)
(0.00117579 0.00190439 0.996659)
(0.00091865 0.00220715 1.02733)
(0.000588295 0.00243211 1.04872)
(0.000202626 0.0025531 1.05969)
(-0.0002027 0.0025531 1.05969)
(-0.000588367 0.0024321 1.04872)
(-0.000918718 0.00220714 1.02733)
(-0.00117586 0.00190437 0.996658)
(-0.00134165 0.00156084 0.958109)
(0.00189305 0.00219061 1.12813)
(0.00165612 0.00264323 1.17089)
(0.00129203 0.00304194 1.20471)
(0.000825622 0.00333727 1.22822)
(0.000284076 0.00349565 1.24028)
(-0.000284169 0.00349565 1.24028)
(-0.000825713 0.00333726 1.22822)
(-0.00129212 0.00304193 1.20471)
(-0.0016562 0.00264321 1.17089)
(-0.00189312 0.0021906 1.12813)
(0.00242906 0.00279616 1.28214)
(0.00211513 0.00332899 1.3276)
(0.00164411 0.0037954 1.36333)
(0.00104713 0.00413884 1.3881)
(0.000359692 0.00432223 1.40078)
(-0.000359804 0.00432223 1.40078)
(-0.00104724 0.00413884 1.3881)
(-0.00164421 0.00379539 1.36333)
(-0.00211522 0.00332898 1.3276)
(-0.00242914 0.00279615 1.28214)
(0.00289249 0.00330988 1.41987)
(0.00250177 0.00387783 1.46664)
(0.00193438 0.00436937 1.50315)
(0.00122664 0.00472813 1.52837)
(0.000420408 0.00491856 1.54123)
(-0.000420536 0.00491856 1.54123)
(-0.00122677 0.00472813 1.52837)
(-0.0019345 0.00436937 1.50315)
(-0.00250188 0.00387782 1.46663)
(-0.00289258 0.00330987 1.41987)
(0.00323828 0.00367598 1.54083)
(0.00277658 0.00422537 1.58785)
(0.00213126 0.00468878 1.62422)
(0.00134362 0.00502283 1.64914)
(0.000459104 0.00519861 1.66178)
(-0.000459246 0.00519861 1.66178)
(-0.00134375 0.00502283 1.64914)
(-0.0021314 0.00468878 1.62422)
(-0.0027767 0.00422537 1.58785)
(-0.00323839 0.00367597 1.54082)
(0.0034397 0.00390185 1.64424)
(0.00291044 0.00433283 1.69163)
(0.00220852 0.00470014 1.72691)
(0.00138132 0.00496 1.75074)
(0.000470086 0.00509509 1.76274)
(-0.000470237 0.00509509 1.76274)
(-0.00138146 0.00496 1.75074)
(-0.00220866 0.00470015 1.72691)
(-0.00291057 0.00433284 1.69163)
(-0.00343982 0.00390186 1.64424)
(-4.2295e-07 2.06032e-07 0.121876)
(-1.45654e-06 6.98213e-07 0.127913)
(-1.65006e-06 5.27562e-07 0.132781)
(-1.0726e-06 2.16676e-07 0.136198)
(-3.88207e-07 4.04165e-08 0.13796)
(3.84351e-07 4.01296e-08 0.13796)
(1.06886e-06 2.1582e-07 0.136198)
(1.64652e-06 5.26187e-07 0.132781)
(1.45314e-06 6.96297e-07 0.127913)
(4.20172e-07 2.03721e-07 0.121875)
(3.94631e-05 4.74727e-05 0.35349)
(3.24555e-05 6.03086e-05 0.370011)
(2.43123e-05 7.04581e-05 0.383319)
(1.55317e-05 7.77552e-05 0.392649)
(5.32059e-06 8.169e-05 0.397454)
(-5.33477e-06 8.16892e-05 0.397454)
(-1.55455e-05 7.77527e-05 0.392648)
(-2.43252e-05 7.04542e-05 0.383319)
(-3.24676e-05 6.03031e-05 0.370011)
(-3.94731e-05 4.74661e-05 0.35349)
(0.00013517 0.000158669 0.569951)
(0.000117078 0.000198955 0.595371)
(9.09302e-05 0.00023361 0.615787)
(5.84458e-05 0.000259458 0.630079)
(2.01471e-05 0.000273465 0.637433)
(-2.01734e-05 0.000273464 0.637433)
(-5.84713e-05 0.000259455 0.630079)
(-9.09541e-05 0.000233604 0.615787)
(-0.0001171 0.000198947 0.595371)
(-0.000135189 0.000158659 0.56995)
(0.00028608 0.000332808 0.771115)
(0.000251312 0.000413456 0.803871)
(0.000197052 0.000484597 0.830071)
(0.000126835 0.00053807 0.848378)
(4.37823e-05 0.000567061 0.857789)
(-4.3822e-05 0.00056706 0.857789)
(-0.000126874 0.000538065 0.848378)
(-0.000197088 0.000484589 0.830071)
(-0.000251345 0.000413446 0.803871)
(-0.000286109 0.000332797 0.771114)
(0.000479671 0.000554803 0.956835)
(0.000422916 0.000682437 0.995381)
(0.000332353 0.000795942 1.02606)
(0.000213775 0.000881254 1.04744)
(7.37829e-05 0.000927429 1.05842)
(-7.38368e-05 0.000927428 1.05842)
(-0.000213827 0.000881249 1.04744)
(-0.000332403 0.000795934 1.02606)
(-0.000422961 0.000682426 0.995381)
(-0.00047971 0.00055479 0.956835)
(0.000697085 0.000802265 1.12695)
(0.000613853 0.00097548 1.16976)
(0.000481789 0.00112946 1.20363)
(0.00030923 0.00124475 1.22719)
(0.000106622 0.00130695 1.23927)
(-0.00010669 0.00130695 1.23927)
(-0.000309296 0.00124474 1.22719)
(-0.000481852 0.00112945 1.20363)
(-0.00061391 0.00097547 1.16976)
(-0.000697135 0.000802252 1.12695)
(0.000915591 0.00104844 1.28126)
(0.000802826 0.0012574 1.32685)
(0.000627872 0.00144202 1.36269)
(0.000401654 0.00157935 1.38755)
(0.000138259 0.0016531 1.40027)
(-0.000138341 0.0016531 1.40027)
(-0.000401734 0.00157935 1.38755)
(-0.000627948 0.00144201 1.36269)
(-0.000802896 0.0012574 1.32685)
(-0.000915652 0.00104843 1.28126)
(0.00111147 0.00126528 1.41947)
(0.000968284 0.00149282 1.46645)
(0.000753234 0.00169159 1.50315)
(0.0004797 0.00183801 1.5285)
(0.000164742 0.00191613 1.54144)
(-0.000164837 0.00191613 1.54144)
(-0.000479792 0.00183801 1.5285)
(-0.000753322 0.00169158 1.50315)
(-0.000968364 0.00149282 1.46645)
(-0.00111155 0.00126528 1.41947)
(0.00126503 0.00142866 1.54106)
(0.00109239 0.00165324 1.58838)
(0.00084333 0.00184423 1.625)
(0.000533791 0.00198292 1.65011)
(0.000182735 0.00205622 1.66286)
(-0.00018284 0.00205622 1.66286)
(-0.000533894 0.00198292 1.65011)
(-0.000843428 0.00184423 1.625)
(-0.00109248 0.00165323 1.58838)
(-0.00126511 0.00142866 1.54106)
(0.00136309 0.00154023 1.64519)
(0.0011604 0.00172117 1.69297)
(0.000885112 0.00187492 1.72856)
(0.000555543 0.00198421 1.75263)
(0.000189369 0.00204119 1.76475)
(-0.000189481 0.00204119 1.76475)
(-0.000555653 0.00198421 1.75263)
(-0.000885217 0.00187492 1.72856)
(-0.0011605 0.00172117 1.69297)
(-0.00136318 0.00154023 1.64519)
(2.45119e-08 7.86291e-07 0.121847)
(-8.30639e-07 1.17121e-06 0.127882)
(-1.03785e-06 1.0035e-06 0.132746)
(-7.53286e-07 7.15641e-07 0.136161)
(-2.80109e-07 5.31935e-07 0.137922)
(2.7751e-07 5.31744e-07 0.137922)
(7.50753e-07 7.15058e-07 0.136161)
(1.03545e-06 1.00256e-06 0.132746)
(8.28373e-07 1.1699e-06 0.127882)
(-2.64113e-08 7.8474e-07 0.121847)
(1.12855e-05 1.48165e-05 0.353356)
(7.99494e-06 1.90748e-05 0.369866)
(5.34104e-06 2.17885e-05 0.383162)
(3.20439e-06 2.351e-05 0.392483)
(1.05871e-06 2.43836e-05 0.397284)
(-1.0684e-06 2.4383e-05 0.397284)
(-3.21381e-06 2.35083e-05 0.392483)
(-5.34991e-06 2.17858e-05 0.383161)
(-8.00313e-06 1.9071e-05 0.369866)