/*--------------------------------*- C++ -*----------------------------------*\
| =========                 |                                                 |
| \\      /  F ield         | OpenFOAM: The Open Source CFD Toolbox           |
|  \\    /   O peration     | Version:  2106                                  |
|   \\  /    A nd           | Website:  www.openfoam.com                      |
|    \\/     M anipulation  |                                                 |
\*---------------------------------------------------------------------------*/
FoamFile
{
    version     2.0;
    format      ascii;
    arch        "LSB;label=32;scalar=64";
    class       surfaceScalarField;
    location    "0.65";
    object      phi;
}
// * * * * * * * * * * * * * * * * * * * * * * * * * * * * * * * * * * * * * //

dimensions      [0 3 -1 0 0 0 0];

oriented        oriented;

internalField   nonuniform List<scalar> 
29100
(
0.00118992
0.151525
0.0815498
-3.91686e-10
0.00146425
0.156438
0.0896181
0.00125654
0.159882
0.0963581
0.000715604
0.162176
0.101182
-2.18581e-09
0.163327
0.103695
-0.000715608
0.163327
0.103695
-0.00125654
0.162176
0.101182
-0.00146425
0.159882
0.0963581
-0.00118992
0.156438
0.0896181
0.151525
0.0815498
-4.92337e-09
0.00238216
0.209785
0.156663
-7.45624e-10
0.0033089
0.214401
0.170292
0.00295125
0.217492
0.181435
0.00170726
0.219421
0.189316
-6.12331e-09
0.220367
0.193388
-0.00170727
0.220367
0.193388
-0.00295126
0.219421
0.189316
-0.00330891
0.217492
0.181435
-0.00238217
0.214401
0.170292
0.209785
0.156663
-1.26407e-08
0.00303854
0.22098
0.186112
-1.06517e-09
0.00429774
0.223921
0.201252
0.00385784
0.225837
0.213438
0.0022344
0.226881
0.22198
-9.90733e-09
0.227366
0.22637
-0.00223442
0.227366
0.22637
-0.00385786
0.226881
0.22198
-0.00429776
0.225837
0.213438
-0.00303855
0.223921
0.201252
0.22098
0.186112
-1.92586e-08
0.00346996
0.207632
0.193264
-1.34113e-09
0.0048411
0.208891
0.208541
0.00433646
0.209656
0.220684
0.00250712
0.209892
0.229135
-1.38191e-08
0.209961
0.23346
-0.00250715
0.209961
0.23346
-0.00433648
0.209892
0.229135
-0.00484113
0.209656
0.220684
-0.00346998
0.208891
0.208541
0.207632
0.193264
-2.51115e-08
0.00370026
0.182507
0.18785
-1.61336e-09
0.00509259
0.182472
0.202759
0.00454934
0.182364
0.214489
0.00262675
0.182026
0.222605
-1.80765e-08
0.181806
0.226745
-0.00262679
0.181806
0.226745
-0.00454938
0.182026
0.222605
-0.00509263
0.182364
0.214489
-0.0037003
0.182472
0.202759
0.182507
0.18785
-3.05598e-08
0.00378499
0.152943
0.175245
-1.90596e-09
0.00515778
0.15205
0.189632
0.00459798
0.151373
0.20086
0.00265332
0.150699
0.208588
-2.28677e-08
0.150316
0.21252
-0.00265337
0.150316
0.21252
-0.00459803
0.150699
0.208588
-0.00515782
0.151373
0.20086
-0.00378503
0.15205
0.189632
0.152943
0.175245
-3.5746e-08
0.00379215
0.123051
0.158606
-2.29569e-09
0.00513122
0.121674
0.17247
0.00456733
0.120682
0.18322
0.00263545
0.119863
0.190583
-2.83285e-08
0.119421
0.19432
-0.00263551
0.119421
0.19432
-0.00456738
0.119863
0.190583
-0.00513127
0.120682
0.18322
-0.0037922
0.121674
0.17247
0.123051
0.158606
-4.07669e-08
0.00375659
0.0950624
0.139778
-2.77984e-09
0.00507561
0.0934631
0.153176
0.00451765
0.0923536
0.163506
0.00260796
0.0915379
0.17055
-3.44781e-08
0.0911159
0.174117
-0.00260803
0.0911158
0.174117
-0.00451771
0.0915379
0.17055
-0.00507567
0.0923536
0.163506
-0.00375665
0.0934631
0.153176
0.0950624
0.139778
-4.55805e-08
0.00372367
0.0700996
0.119826
-3.10845e-09
0.00505594
0.0684438
0.132821
0.00450157
0.0673909
0.142792
0.00259787
0.0666941
0.149562
-4.11334e-08
0.0663492
0.152983
-0.00259795
0.0663492
0.152983
-0.00450164
0.0666941
0.149562
-0.00505601
0.0673909
0.142792
-0.00372373
0.0684438
0.132821
0.0700996
0.119826
-5.00141e-08
0.00394453
0.0993555
-3.41259e-09
0.0484265
0.0052457
0.112009
0.0471174
0.00461369
0.121668
0.0462855
0.0026425
0.128198
0.045782
-4.76699e-08
0.131489
0.0455351
-0.00264259
0.131489
0.0455351
-0.00461378
0.128198
0.045782
-0.00524578
0.121668
0.0462855
-0.00394459
0.112009
0.0471174
0.0993555
-5.3102e-08
0.0484265
-0.000242222
0.0367935
0.0449985
-5.19308e-10
-0.000244283
0.0399907
0.0496295
-0.000171707
0.0426923
0.0535932
-8.55101e-05
0.0446243
0.0564719
-3.63967e-09
0.0456237
0.0579855
8.55028e-05
0.0456237
0.0579855
0.0001717
0.0446243
0.0564719
0.000244275
0.0426923
0.0535932
0.000242214
0.0399907
0.0496295
0.0367935
0.0449985
-7.67119e-09
6.50585e-05
0.0812615
0.11213
-9.81208e-10
0.000254701
0.0870908
0.123002
0.000304402
0.0919384
0.132139
0.000203911
0.095335
0.138706
-1.11938e-08
0.0970796
0.142136
-0.000203934
0.0970796
0.142136
-0.000304424
0.095335
0.138706
-0.000254723
0.0919384
0.132139
-6.50799e-05
0.0870908
0.123002
0.0812615
0.11213
-2.12204e-08
0.000618505
0.112958
0.153797
-1.48709e-09
0.00103954
0.119709
0.168212
0.00101713
0.12525
0.180148
0.00062162
0.129057
0.188653
-1.89057e-08
0.130998
0.193073
-0.000621658
0.130998
0.193073
-0.00101716
0.129057
0.188653
-0.00103958
0.12525
0.180148
-0.000618539
0.119709
0.168212
0.112958
0.153797
-3.35871e-08
0.0012416
0.129538
0.175442
-1.97079e-09
0.00188881
0.135966
0.191637
0.00177724
0.141174
0.204872
0.00106143
0.144678
0.21423
-2.69632e-08
0.146447
0.219072
-0.00106148
0.146447
0.219072
-0.00177729
0.144678
0.21423
-0.00188886
0.141174
0.204872
-0.00124164
0.135966
0.191637
0.129538
0.175442
-4.46895e-08
0.00185061
0.132757
0.18278
-2.49344e-09
0.00269542
0.138169
0.199711
0.00249099
0.142484
0.213384
0.00147144
0.145319
0.222984
-3.55343e-08
0.146732
0.227931
-0.00147151
0.146732
0.227931
-0.00249106
0.145319
0.222984
-0.00269549
0.142484
0.213384
-0.00185067
0.138169
0.199711
0.132757
0.18278
-5.47073e-08
0.00240128
0.125674
0.179927
-3.12784e-09
0.00341251
0.129797
0.196992
0.00312101
0.133009
0.210627
0.00183215
0.135057
0.220139
-4.47393e-08
0.136062
0.225022
-0.00183224
0.136062
0.225022
-0.0031211
0.135057
0.220139
-0.00341258
0.133009
0.210627
-0.00240135
0.129797
0.196992
0.125674
0.179927
-6.36588e-08
0.00287037
0.111539
0.16987
-4.08402e-09
0.00402363
0.11437
0.186743
0.00365881
0.116494
0.200099
0.00214059
0.1178
0.209357
-5.45629e-08
0.118429
0.214094
-0.0021407
0.118429
0.214094
-0.00365891
0.1178
0.209357
-0.00402372
0.116494
0.200099
-0.00287045
0.11437
0.186743
0.111539
0.16987
-7.15236e-08
0.0032521
0.0932903
0.154775
-5.37399e-09
0.00453864
0.0949605
0.171299
0.00411831
0.0961523
0.184268
0.00240569
0.0968558
0.193207
-6.47236e-08
0.0971885
0.197764
-0.00240581
0.0971885
0.197764
-0.00411843
0.0968558
0.193207
-0.00453874
0.0961523
0.184268
-0.00325219
0.0949605
0.171299
0.0932903
0.154775
-7.81598e-08
0.00358254
0.0733393
0.136194
-6.87836e-09
0.00500719
0.0740441
0.152313
0.0045377
0.0745486
0.164865
0.00264648
0.0748424
0.173467
-7.45106e-08
0.0749812
0.177837
-0.00264662
0.0749812
0.177837
-0.00453783
0.0748424
0.173467
-0.0050073
0.0745486
0.164865
-0.00358264
0.0740441
0.152313
0.0733393
0.136194
-8.35454e-08
0.00401028
0.11523
-8.22061e-09
0.0534548
0.00555484
0.130954
0.0535553
0.00499456
0.143091
0.0536856
0.00289673
0.151359
0.0537791
-8.23574e-08
0.155544
0.0538225
-0.00289689
0.155544
0.0538225
-0.00499471
0.151359
0.0537791
-0.00555497
0.143091
0.0536856
-0.00401038
0.130954
0.0535553
0.11523
-8.58411e-08
0.0534548
3.96181e-05
0.0100573
0.0349015
-5.33237e-10
3.55622e-05
0.0110976
0.038536
2.99475e-05
0.0119804
0.0416184
1.65911e-05
0.0126359
0.0438493
-3.90987e-09
0.0129813
0.0450209
-1.65989e-05
0.0129813
0.0450209
-2.99554e-05
0.0126359
0.0438493
-3.557e-05
0.0119804
0.0416184
-3.96262e-05
0.0110976
0.038536
0.0100573
0.0349015
-8.18297e-09
0.000283317
0.0304898
0.0914144
-1.08677e-09
0.000384715
0.0332155
0.100783
0.0003438
0.0354964
0.108664
0.000200532
0.0371415
0.114344
-1.24846e-08
0.0380009
0.117317
-0.000200557
0.0380009
0.117317
-0.000343824
0.0371415
0.114343
-0.000384739
0.0354964
0.108664
-0.000283341
0.0332155
0.100783
0.0304898
0.0914144
-2.31185e-08
0.000604788
0.0515146
0.132168
-1.68047e-09
0.000858073
0.0555385
0.145636
0.000777323
0.0588614
0.156864
0.00045559
0.0612046
0.164911
-2.14804e-08
0.0624184
0.169111
-0.000455633
0.0624184
0.169111
-0.000777365
0.0612046
0.164911
-0.000858113
0.0588614
0.156864
-0.000604827
0.0555385
0.145636
0.0515146
0.132168
-3.69164e-08
0.000974078
0.0674
0.158583
-2.29624e-09
0.00139779
0.0720005
0.174752
0.00127658
0.0757533
0.188101
0.000749676
0.078348
0.197613
-3.09248e-08
0.0796799
0.20256
-0.000749737
0.0796799
0.20256
-0.00127664
0.078348
0.197613
-0.00139784
0.0757533
0.188101
-0.000974131
0.0720005
0.174751
0.0674
0.158583
-4.93363e-08
0.0013659
0.076143
0.172671
-2.99259e-09
0.00195628
0.0806567
0.190464
0.00179111
0.0842899
0.205012
0.0010521
0.0867538
0.215317
-4.08456e-08
0.0880059
0.220657
-0.00105218
0.0880059
0.220657
-0.00179118
0.0867538
0.215317
-0.00195635
0.0842899
0.205012
-0.00136596
0.0806567
0.190464
0.076143
0.172671
-6.03925e-08
0.00175973
0.0777666
0.176544
-3.85666e-09
0.00250328
0.0817244
0.195181
0.0022909
0.0848554
0.210274
0.00134493
0.0869359
0.220903
-5.12127e-08
0.0879815
0.226391
-0.00134503
0.0879815
0.226391
-0.00229099
0.0869359
0.220903
-0.00250336
0.0848554
0.210274
-0.00175981
0.0817244
0.195181
0.0777666
0.176544
-6.99551e-08
0.00213216
0.0733552
0.17215
-5.10783e-09
0.00301446
0.0764943
0.191091
0.00275596
0.0789201
0.206292
0.00161703
0.0804982
0.216934
-6.18344e-08
0.0812823
0.22241
-0.00161715
0.0812823
0.22241
-0.00275608
0.0804982
0.216934
-0.00301457
0.0789201
0.206292
-0.00213225
0.0764943
0.191091
0.0733552
0.17215
-7.78535e-08
0.00246703
0.0644738
0.16119
-6.76287e-09
0.00347982
0.066698
0.180083
0.00317976
0.0683736
0.195115
0.0018648
0.0694438
0.205576
-7.22212e-08
0.0699707
0.21094
-0.00186494
0.0699707
0.21094
-0.00317989
0.0694439
0.205576
-0.00347993
0.0683736
0.195115
-0.00246713
0.0666981
0.180083
0.0644738
0.16119
-8.38406e-08
0.00277696
0.0527952
0.145096
-8.69152e-09
0.00391543
0.0541407
0.163732
0.00357218
0.0551482
0.178434
0.00209201
0.0557894
0.188601
-8.14382e-08
0.0561046
0.193795
-0.00209217
0.0561046
0.193795
-0.00357233
0.0557894
0.188601
-0.00391556
0.0551482
0.178434
-0.00277706
0.0541407
0.163732
0.0527952
0.145096
-8.78103e-08
0.00312091
0.12505
-1.0371e-08
0.0398539
0.00436573
0.143347
0.0405025
0.00396033
0.157623
0.0410222
0.0023099
0.167427
0.0413712
-8.77151e-08
0.172415
0.0415436
-0.00231007
0.172415
0.0415436
-0.00396049
0.167427
0.0413712
-0.00436586
0.157623
0.0410222
-0.00312102
0.143347
0.0405025
0.12505
-8.7744e-08
0.0398539
-3.18568e-05
0.00410152
0.0308319
-5.00932e-10
-4.54925e-05
0.00451649
0.0340332
-3.66885e-05
0.00486867
0.0367409
-2.02296e-05
0.00513051
0.0387023
-3.54822e-09
0.00526769
0.039733
2.02225e-05
0.00526769
0.0397329
3.66813e-05
0.00513052
0.0387023
4.54851e-05
0.00486867
0.0367409
3.18493e-05
0.0045165
0.0340332
0.00410152
0.0308319
-7.38656e-09
1.00038e-05
0.0127317
0.0827742
-1.07976e-09
1.72881e-05
0.0139507
0.0913413
2.17154e-05
0.0149837
0.0985449
1.55115e-05
0.0157367
0.103744
-1.15291e-08
0.0161315
0.106469
-1.55345e-05
0.0161315
0.106469
-2.17381e-05
0.0157367
0.103744
-1.73098e-05
0.0149838
0.0985449
-1.00242e-05
0.0139507
0.0913413
0.0127317
0.0827742
-2.10053e-08
0.000124018
0.022657
0.122118
-1.74256e-09
0.000188039
0.0246804
0.134842
0.000180562
0.0263837
0.145472
0.00011
0.0276064
0.153112
-2.0047e-08
0.0282447
0.157108
-0.00011004
0.0282447
0.157108
-0.000180601
0.0276064
0.153112
-0.000188076
0.0263838
0.145472
-0.000124053
0.0246804
0.134842
0.022657
0.122118
-3.40465e-08
0.000295472
0.0314046
0.14954
-2.43238e-09
0.000440511
0.0339803
0.165307
0.000415237
0.0361276
0.178383
0.00024895
0.0376461
0.18774
-2.90295e-08
0.038434
0.19262
-0.000249008
0.038434
0.19262
-0.000415293
0.0376461
0.18774
-0.000440564
0.0361276
0.178383
-0.000295521
0.0339803
0.165307
0.0314047
0.14954
-4.57194e-08
0.000508584
0.037446
0.166121
-3.22307e-09
0.000747463
0.0402307
0.183975
0.000699106
0.0425223
0.198666
0.000416425
0.0441183
0.209128
-3.84019e-08
0.0449401
0.214568
-0.000416501
0.0449401
0.214568
-0.000699179
0.0441183
0.209128
-0.00074753
0.0425223
0.198666
-0.000508645
0.0402307
0.183975
0.037446
0.166121
-5.59809e-08
0.000747194
0.0401284
0.173114
-4.18703e-09
0.00108467
0.0427993
0.192275
0.00100902
0.0449599
0.207912
0.000598713
0.0464402
0.218991
-4.80323e-08
0.0471959
0.224734
-0.000598808
0.0471959
0.224734
-0.00100911
0.0464402
0.218991
-0.00108475
0.0449599
0.207912
-0.000747265
0.0427993
0.192275
0.0401284
0.173114
-6.46791e-08
0.000993906
0.0394735
0.171811
-5.52834e-09
0.00143028
0.0417849
0.191669
0.0013256
0.0436139
0.207743
0.000784586
0.0448459
0.219069
-5.76427e-08
0.0454691
0.224921
-0.000784699
0.0454691
0.224921
-0.00132571
0.0448459
0.219069
-0.00143037
0.043614
0.207743
-0.000993987
0.0417849
0.191669
0.0394735
0.171811
-7.16036e-08
0.00123567
0.0359644
0.163463
-7.28117e-09
0.00177091
0.037765
0.183567
0.00163708
0.0391565
0.199706
0.000967037
0.0400792
0.211013
-6.67009e-08
0.0405421
0.216835
-0.000967168
0.0405421
0.216835
-0.0016372
0.0400792
0.211013
-0.00177101
0.0391565
0.199706
-0.00123576
0.037765
0.183567
0.0359644
0.163463
-7.65191e-08
0.00147671
0.0303494
0.149234
-9.32932e-09
0.00210906
0.0315878
0.169276
0.00194213
0.0325299
0.185228
0.00114399
0.0331489
0.19633
-7.4301e-08
0.033458
0.202023
-0.00114413
0.033458
0.202023
-0.00194227
0.033149
0.19633
-0.00210917
0.03253
0.185227
-0.00147681
0.0315879
0.169276
0.0303494
0.149234
-7.93654e-08
0.00173209
0.13018
-1.1074e-08
0.0234876
0.00245556
0.150009
0.0242021
0.00224824
0.165595
0.0247645
0.00131865
0.176363
0.0251431
-7.88232e-08
0.18186
0.0253322
-0.00131881
0.18186
0.0253322
-0.00224838
0.176363
0.0251431
-0.00245568
0.165595
0.0247645
-0.00173218
0.150009
0.0242021
0.13018
-7.82809e-08
0.0234876
2.13494e-06
0.00133641
0.0294933
-4.33084e-10
-2.61623e-07
0.00148399
0.0325516
1.23515e-07
0.00161239
0.0351281
1.35584e-07
0.00171042
0.0369919
-2.95729e-09
0.0017627
0.0379704
-1.41513e-07
0.0017627
0.0379704
-1.29488e-07
0.00171042
0.0369919
2.55572e-07
0.00161239
0.0351281
-2.14091e-06
0.001484
0.0325516
0.00133641
0.0294933
-6.21709e-09
3.094e-05
0.00479585
0.0792838
-9.65842e-10
3.99474e-05
0.0052933
0.087523
3.67596e-05
0.0057208
0.0944397
2.17921e-05
0.0060384
0.0994305
-9.69051e-09
0.00620668
0.102047
-2.18114e-05
0.00620668
0.102047
-3.67787e-05
0.0060384
0.0994305
-3.99662e-05
0.00572081
0.0944397
-3.09582e-05
0.00529331
0.087523
0.00479585
0.0792838
-1.79248e-08
8.62396e-05
0.00925221
0.117576
-1.60558e-09
0.000122158
0.0101552
0.129944
0.000112709
0.0109242
0.140278
6.68811e-05
0.0114852
0.147711
-1.69299e-08
0.0117809
0.151601
-6.69147e-05
0.0117809
0.151601
-0.000112742
0.0114852
0.147711
-0.00012219
0.0109242
0.140278
-8.62694e-05
0.0101552
0.129944
0.00925222
0.117576
-2.88558e-08
0.000167782
0.0135936
0.14503
-2.29285e-09
0.00024353
0.0148313
0.160555
0.00022612
0.0158755
0.173449
0.000134264
0.0166259
0.182691
-2.45721e-08
0.0170188
0.187516
-0.000134312
0.0170188
0.187516
-0.000226167
0.0166259
0.182691
-0.000243574
0.0158755
0.173449
-0.000167823
0.0148314
0.160555
0.0135936
0.14503
-3.87265e-08
0.000272584
0.016985
0.162457
-3.07957e-09
0.00039719
0.0184126
0.180269
0.000369576
0.0196028
0.194966
0.0002194
0.0204458
0.205458
-3.25052e-08
0.0208841
0.210922
-0.000219464
0.0208841
0.210922
-0.000369637
0.0204458
0.205458
-0.000397247
0.0196028
0.194966
-0.000272635
0.0184126
0.180269
0.016985
0.162457
-4.74184e-08
0.000395239
0.0189283
0.170776
-4.01882e-09
0.000574096
0.0203786
0.19013
0.000534012
0.0215697
0.205986
0.000316777
0.0224007
0.217253
-4.05668e-08
0.0228294
0.223106
-0.000316856
0.0228294
0.223106
-0.000534087
0.0224007
0.217253
-0.000574164
0.0215697
0.205986
-0.000395299
0.0203786
0.19013
0.0189284
0.170776
-5.47367e-08
0.00052824
0.0192497
0.170961
-5.26109e-09
0.000763973
0.0205724
0.19124
0.000709815
0.0216386
0.207728
0.000420651
0.0223711
0.219388
-4.84794e-08
0.0227457
0.225426
-0.000420746
0.0227457
0.225426
-0.000709904
0.0223711
0.219388
-0.000764053
0.0216386
0.207728
-0.000528308
0.0205724
0.19124
0.0192497
0.170961
-6.04744e-08
0.000664834
0.0180456
0.164003
-6.81834e-09
0.000958714
0.0191306
0.184715
0.000889232
0.0199874
0.201427
0.000526241
0.0205672
0.21318
-5.5773e-08
0.0208612
0.219245
-0.00052635
0.0208613
0.219245
-0.000889333
0.0205673
0.21318
-0.000958802
0.0199874
0.201427
-0.000664907
0.0191306
0.184715
0.0180456
0.164002
-6.44251e-08
0.000805012
0.0156076
0.150867
-8.59065e-09
0.00115544
0.0163992
0.171657
0.00106748
0.0170123
0.188291
0.000630062
0.0174219
0.199912
-6.17012e-08
0.0176281
0.205886
-0.000630182
0.0176281
0.205886
-0.00106759
0.0174219
0.199912
-0.00115553
0.0170123
0.188291
-0.000805088
0.0163992
0.171657
0.0156076
0.150867
-6.65379e-08
0.000943735
0.13249
-1.00854e-08
0.0123539
0.00134661
0.153164
0.0128415
0.00123936
0.16949
0.0132246
0.00072933
0.18081
0.0134844
-6.49918e-08
0.186602
0.0136152
-0.000729456
0.186602
0.0136152
-0.00123947
0.18081
0.0134844
-0.00134671
0.16949
0.0132246
-0.000943812
0.153164
0.0128415
0.13249
-6.53466e-08
0.0123539
-5.60167e-06
0.00058063
0.0289183
-3.54086e-10
-8.35171e-06
0.000638731
0.0319156
-6.63068e-06
0.000687912
0.0344385
-3.65829e-06
0.000725288
0.0362636
-2.33576e-09
0.000744934
0.0372218
3.6536e-06
0.000744934
0.0372218
6.62591e-06
0.000725289
0.0362636
8.34701e-06
0.000687913
0.0344385
5.59677e-06
0.000638732
0.0319156
0.000580631
0.0289183
-4.93806e-09
-9.96562e-07
0.00202242
0.077843
-8.43811e-10
-2.12513e-06
0.00222793
0.0859349
-8.35784e-07
0.00240307
0.0927232
4.76313e-08
0.00253329
0.0976216
-7.66672e-09
0.00260229
0.100189
-6.29059e-08
0.00260229
0.100189
8.20753e-07
0.00253329
0.0976216
2.10934e-06
0.00240307
0.0927232
9.82191e-07
0.00222793
0.0859349
0.00202242
0.077843
-1.4195e-08
1.74447e-05
0.00393292
0.115648
-1.40656e-09
2.57792e-05
0.004325
0.127839
2.52814e-05
0.00465921
0.138022
1.56238e-05
0.00490444
0.14535
-1.34178e-08
0.00503404
0.149185
-1.56505e-05
0.00503404
0.149185
-2.53075e-05
0.00490444
0.14535
-2.58041e-05
0.00465921
0.138022
-1.74682e-05
0.00432501
0.127839
0.00393293
0.115648
-2.28915e-08
5.03653e-05
0.00589306
0.14302
-2.01445e-09
7.49392e-05
0.00645733
0.158398
7.13201e-05
0.00693574
0.171176
4.305e-05
0.0072825
0.180341
-1.94829e-08
0.00746491
0.185129
-4.30885e-05
0.00746491
0.185129
-7.13574e-05
0.0072825
0.180341
-7.49743e-05
0.00693575
0.171176
-5.03976e-05
0.00645734
0.158398
0.00589307
0.14302
-3.07881e-08
9.65337e-05
0.0075326
0.160721
-2.70472e-09
0.000142946
0.0082139
0.178466
0.000134955
0.00878611
0.193124
8.08904e-05
0.00919565
0.203599
-2.57475e-08
0.00940979
0.209058
-8.09412e-05
0.00940979
0.209058
-0.000135004
0.00919566
0.203599
-0.000142991
0.00878612
0.193124
-9.65741e-05
0.00821391
0.178466
0.00753262
0.160721
-3.77626e-08
0.000153808
0.0085876
0.169567
-3.50823e-09
0.000226182
0.0093101
0.188961
0.000212597
0.00990883
0.204876
0.000126974
0.0103316
0.216203
-3.20624e-08
0.0105511
0.222091
-0.000127037
0.0105511
0.222091
-0.000212657
0.0103316
0.216203
-0.000226237
0.00990884
0.204876
-0.000153856
0.00931011
0.188961
0.00858761
0.169567
-4.36502e-08
0.00021896
0.00892284
0.170407
-4.5267e-09
0.000320063
0.00960923
0.19084
0.000299889
0.0101683
0.207489
0.000178672
0.0105574
0.219283
-3.81975e-08
0.0107578
0.225398
-0.000178747
0.0107578
0.225398
-0.000299959
0.0105574
0.219283
-0.000320126
0.0101683
0.207489
-0.000219014
0.00960925
0.190839
0.00892286
0.170407
-4.82858e-08
0.00028897
0.00852923
0.164107
-5.7733e-09
0.000420663
0.00911547
0.185077
0.000392908
0.00958388
0.202039
0.000233522
0.00990506
0.213992
-4.37891e-08
0.0100691
0.220168
-0.000233608
0.0100691
0.220168
-0.000392988
0.00990507
0.213992
-0.000420733
0.00958389
0.202039
-0.000289027
0.00911549
0.185077
0.00852925
0.164107
-5.15093e-08
0.000364014
0.00750313
0.151529
-7.17981e-09
0.000526313
0.00795022
0.17266
0.000488882
0.00830011
0.189612
0.000289525
0.00853657
0.20148
-4.82836e-08
0.00865635
0.207588
-0.000289619
0.00865635
0.207588
-0.000488968
0.00853658
0.20148
-0.000526387
0.00830012
0.189612
-0.000364075
0.00795023
0.17266
0.00750314
0.151529
-5.32855e-08
0.000439447
0.13353
-8.33533e-09
0.00602381
0.000631596
0.154609
0.00631318
0.000584404
0.171296
0.00654164
0.000345023
0.182889
0.00669751
-5.07746e-08
0.188827
0.00677634
-0.000345121
0.188827
0.00677635
-0.000584494
0.182889
0.00669751
-0.000631672
0.171296
0.00654165
-0.000439507
0.154609
0.00631319
0.13353
-5.25675e-08
0.00602382
-8.36107e-07
0.000186956
0.0287322
-2.69081e-10
-1.63129e-06
0.0002071
0.0317093
-1.19313e-06
0.000224649
0.0342134
-6.39943e-07
0.000238431
0.0360246
-1.77755e-09
0.000245787
0.0369754
6.3637e-07
0.000245787
0.0369754
1.18955e-06
0.000238432
0.0360246
1.62764e-06
0.000224649
0.0342134
8.32385e-07
0.000207101
0.0317093
0.000186956
0.0287322
-3.65797e-09
1.79201e-06
0.000731088
0.0772971
-6.84072e-10
1.87249e-06
0.000809608
0.0853323
2.02716e-06
0.000877657
0.0920701
1.32749e-06
0.000929165
0.0969316
-5.81095e-09
0.000956665
0.0994797
-1.33906e-06
0.000956666
0.0994797
-2.0386e-06
0.000929166
0.0969316
-1.88349e-06
0.000877659
0.0920701
-1.80252e-06
0.000809611
0.0853323
0.000731091
0.0772971
-1.05672e-08
9.78441e-06
0.00150429
0.114865
-1.14987e-09
1.36972e-05
0.00166262
0.126982
1.29903e-05
0.00179915
0.137101
7.86409e-06
0.00190066
0.144384
-1.01725e-08
0.00195468
0.148194
-7.88427e-06
0.00195468
0.148194
-1.301e-05
0.00190067
0.144383
-1.37161e-05
0.00179915
0.137101
-9.80216e-06
0.00166262
0.126982
0.0015043
0.114865
-1.72006e-08
2.37912e-05
0.00234022
0.14216
-1.64625e-09
3.46187e-05
0.00257799
0.157472
3.25879e-05
0.00278166
0.170195
1.95426e-05
0.00293106
0.179324
-1.47654e-08
0.00301016
0.184093
-1.95718e-05
0.00301016
0.184093
-3.26161e-05
0.00293106
0.179324
-3.46453e-05
0.00278167
0.170195
-2.38156e-05
0.00257799
0.157471
0.00234022
0.14216
-2.3279e-08
4.38824e-05
0.00307985
0.159938
-2.19857e-09
6.43995e-05
0.00337762
0.177646
6.05401e-05
0.00363029
0.192279
3.61968e-05
0.00381327
0.202741
-1.94913e-08
0.00390957
0.208195
-3.62352e-05
0.00390957
0.208195
-6.05769e-05
0.00381327
0.202741
-6.44336e-05
0.0036303
0.192279
-4.3913e-05
0.00337763
0.177646
0.00307986
0.159938
-2.86899e-08
6.95014e-05
0.00359755
0.16898
-2.82763e-09
0.000101975
0.00392373
0.188383
9.57499e-05
0.00419703
0.204316
5.71512e-05
0.00439232
0.215662
-2.42283e-08
0.00449438
0.221564
-5.71988e-05
0.00449438
0.221564
-9.5795e-05
0.00439232
0.215662
-0.000102016
0.00419704
0.204316
-6.95375e-05
0.00392375
0.188383
0.00359756
0.16898
-3.33046e-08
9.94698e-05
0.00381669
0.170088
-3.59493e-09
0.000145574
0.00413587
0.190581
0.000136484
0.00439899
0.207296
8.13423e-05
0.00458435
0.219147
-2.88034e-08
0.00468045
0.225293
-8.13987e-05
0.00468045
0.225293
-0.000136537
0.00458435
0.219146
-0.000145622
0.004399
0.207296
-9.95105e-05
0.00413589
0.190581
0.00381671
0.170088
-3.70041e-08
0.000132513
0.00371503
0.164076
-4.50018e-09
0.000193382
0.00399548
0.185157
0.000180858
0.00422236
0.202228
0.00010757
0.00437972
0.21427
-3.2959e-08
0.00446057
0.220495
-0.000107635
0.00446057
0.220495
-0.000180918
0.00437973
0.21427
-0.000193435
0.00422237
0.202228
-0.000132558
0.00399549
0.185157
0.00371504
0.164076
-3.96751e-08
0.000168381
0.00332078
0.151755
-5.49074e-09
0.000244006
0.00354114
0.173039
0.000227006
0.00371518
0.190136
0.000134575
0.00383386
0.202119
-3.63177e-08
0.00389426
0.208289
-0.000134646
0.00389426
0.208289
-0.000227071
0.00383386
0.202119
-0.000244063
0.00371518
0.190136
-0.000168428
0.00354114
0.173039
0.00332079
0.151755
-4.12916e-08
0.000202682
0.133941
-6.29074e-09
0.00270702
0.000292706
0.155207
0.00285349
0.000271777
0.172063
0.00296941
0.000160802
0.183785
0.00304888
-3.82841e-08
0.189793
0.00308924
-0.000160876
0.189793
0.00308924
-0.000271845
0.183785
0.00304889
-0.000292764
0.172063
0.00296942
-0.000202729
0.155207
0.0028535
0.133941
-4.11851e-08
0.00270703
-1.37624e-06
7.54969e-05
0.028658
-1.90043e-10
-1.98251e-06
8.28761e-05
0.031627
-1.59631e-06
8.91982e-05
0.0341238
-8.82358e-07
9.41236e-05
0.0359298
-1.30997e-09
9.67261e-05
0.0368778
8.7974e-07
9.67261e-05
0.0368778
1.5937e-06
9.41238e-05
0.0359298
1.97989e-06
8.91986e-05
0.0341238
1.3736e-06
8.28767e-05
0.031627
7.54973e-05
0.028658
-2.58011e-09
-1.65979e-06
0.000284563
0.0770897
-5.01494e-10
-2.49848e-06
0.000314319
0.0851017
-2.01705e-06
0.000340054
0.0918187
-1.0783e-06
0.000359579
0.0966652
-4.26635e-09
0.000369992
0.0992054
1.06981e-06
0.000369993
0.0992054
2.00871e-06
0.00035958
0.0966652
2.49032e-06
0.000340056
0.0918187
1.65181e-06
0.000314321
0.0851017
0.000284564
0.0770897
-7.54833e-09
7.31243e-07
0.000586576
0.114562
-8.43179e-10
9.21274e-07
0.000648938
0.126647
1.12868e-06
0.00070273
0.136738
8.07262e-07
0.000742937
0.144
-7.45737e-09
0.000764382
0.147801
-8.22038e-07
0.000764382
0.147801
-1.14307e-06
0.000742939
0.144
-9.34763e-07
0.000702732
0.136738
-7.43087e-07
0.000648941
0.126647
0.00058658
0.114562
-1.21934e-08
5.72783e-06
0.000924405
0.141817
-1.23065e-09
8.45562e-06
0.00102122
0.157097
8.19634e-06
0.0011044
0.169794
5.02052e-06
0.00116581
0.178904
-1.08134e-08
0.00119843
0.183664
-5.04189e-06
0.00119843
0.183664
-8.21696e-06
0.00116581
0.178904
-8.47504e-06
0.0011044
0.169794
-5.74566e-06
0.00102122
0.157096
0.000924411
0.141817
-1.68208e-08
1.3607e-05
0.00123588
0.159613
-1.6492e-09
2.01603e-05
0.00136087
0.1773
1.9188e-05
0.00146741
0.191917
1.15732e-05
0.00154511
0.202369
-1.42567e-08
0.00158616
0.207819
-1.16013e-05
0.00158616
0.207819
-1.92148e-05
0.00154511
0.202369
-2.01853e-05
0.00146741
0.191917
-1.36294e-05
0.00136088
0.1773
0.00123589
0.159613
-2.09318e-08
2.41269e-05
0.00146687
0.168725
-2.11053e-09
3.56701e-05
0.00160771
0.188124
3.37524e-05
0.00172633
0.204059
2.02514e-05
0.00181174
0.215409
-1.76947e-08
0.00185657
0.221314
-2.02862e-05
0.00185657
0.221314
-3.37853e-05
0.00181175
0.215409
-3.57002e-05
0.00172634
0.204059
-2.41534e-05
0.00160772
0.188124
0.00146688
0.168724
-2.44658e-08
3.68572e-05
0.00158004
0.169938
-2.65005e-09
5.43181e-05
0.00172153
0.19045
5.12305e-05
0.00183887
0.207187
3.06486e-05
0.00192217
0.219057
-2.10065e-08
0.00196555
0.225215
-3.06898e-05
0.00196555
0.225215
-5.12692e-05
0.00192218
0.219057
-5.4353e-05
0.00183888
0.207187
-3.68873e-05
0.00172154
0.19045
0.00158005
0.169938
-2.73759e-08
5.13272e-05
0.00155941
0.164046
-3.26748e-09
7.53878e-05
0.00168693
0.185167
7.08502e-05
0.00179077
0.202281
4.22649e-05
0.00186333
0.214357
-2.40223e-08
0.00190076
0.220602
-4.23118e-05
0.00190077
0.220602
-7.0894e-05
0.00186333
0.214357
-7.54268e-05
0.00179077
0.202281
-5.136e-05
0.00168693
0.185167
0.00155942
0.164046
-2.95881e-08
6.75127e-05
0.00141086
0.151836
-3.92916e-09
9.83219e-05
0.0015137
0.173181
9.18143e-05
0.00159543
0.190338
5.4554e-05
0.00165152
0.202368
-2.65047e-08
0.00168017
0.208565
-5.46056e-05
0.00168017
0.208565
-9.18621e-05
0.00165152
0.202368
-9.83638e-05
0.00159544
0.190338
-6.75474e-05
0.00151371
0.173181
0.00141086
0.151836
-3.10805e-08
8.33249e-05
0.134107
-4.45193e-09
0.00116154
0.000120956
0.155451
0.0012318
0.000112739
0.172379
0.00128764
6.6855e-05
0.184156
0.00132607
-2.80975e-08
0.190194
0.00134564
-6.69097e-05
0.190194
0.00134564
-0.000112789
0.184156
0.00132607
-0.000120999
0.172379
0.00128764
-8.33605e-05
0.155451
0.0012318
0.134107
-3.1468e-08
0.00116155
-3.91378e-07
1.91198e-05
0.0286393
-1.2682e-10
-6.03861e-07
2.11845e-05
0.031606
-4.8651e-07
2.30784e-05
0.0341006
-2.70673e-07
2.46403e-05
0.0359049
-9.39496e-10
2.54832e-05
0.036852
2.68803e-07
2.54832e-05
0.036852
4.84656e-07
2.46404e-05
0.0359049
6.02023e-07
2.30786e-05
0.0341006
3.8955e-07
2.11848e-05
0.031606
1.91201e-05
0.0286393
-1.75101e-09
-5.2303e-07
8.66035e-05
0.0770227
-3.48506e-10
-8.87786e-07
9.64349e-05
0.0850269
-7.46747e-07
0.000105205
0.0917365
-4.11669e-07
0.000112038
0.0965775
-3.04343e-09
0.000115726
0.0991147
4.05632e-07
0.000115726
0.0991147
7.40842e-07
0.000112038
0.0965774
8.82048e-07
0.000105206
0.0917364
5.17456e-07
9.64362e-05
0.0850268
8.66044e-05
0.0770227
-5.18734e-09
2.88138e-07
0.000193225
0.114455
-5.91069e-10
2.25555e-07
0.000215337
0.126528
2.57555e-07
0.000234777
0.136609
1.86118e-07
0.000249572
0.143863
-5.31176e-09
0.000257535
0.147659
-1.96619e-07
0.000257536
0.147659
-2.6776e-07
0.000249573
0.143863
-2.35008e-07
0.000234778
0.136609
-2.96385e-07
0.000215339
0.126528
0.000193228
0.114455
-8.44035e-09
2.11523e-06
0.000319393
0.141688
-8.66324e-10
2.96552e-06
0.000355311
0.156956
2.81839e-06
0.000386622
0.169642
1.70983e-06
0.000410078
0.178745
-7.69639e-09
0.000422636
0.1835
-1.72502e-06
0.000422637
0.1835
-2.83302e-06
0.00041008
0.178745
-2.97926e-06
0.000386624
0.169642
-2.12775e-06
0.000355314
0.156956
0.000319397
0.141688
-1.17443e-08
5.12933e-06
0.000441735
0.159485
-1.15916e-09
7.45744e-06
0.000489734
0.177163
7.03981e-06
0.000531153
0.191773
4.22779e-06
0.000561754
0.20222
-1.01337e-08
0.000578035
0.207667
-4.24775e-06
0.000578036
0.207667
-7.05891e-06
0.000561756
0.20222
-7.47513e-06
0.000531156
0.191773
-5.14518e-06
0.000489738
0.177163
0.00044174
0.159485
-1.47334e-08
9.28558e-06
0.000538216
0.168619
-1.47386e-09
1.3629e-05
0.000593844
0.188016
1.28523e-05
0.000641235
0.20395
7.69677e-06
0.000675763
0.2153
-1.25638e-08
0.000694002
0.221205
-7.72146e-06
0.000694003
0.221205
-1.28757e-05
0.000675766
0.2153
-1.36505e-05
0.000641239
0.20395
-9.30445e-06
0.000593849
0.188016
0.000538221
0.168619
-1.73587e-08
1.44477e-05
0.000592159
0.16987
-1.82724e-09
2.1253e-05
0.000649416
0.190388
2.00239e-05
0.000697421
0.207132
1.19714e-05
0.000731875
0.219009
-1.49062e-08
0.000749921
0.225171
-1.20006e-05
0.000749922
0.225171
-2.00515e-05
0.000731878
0.219009
-2.12779e-05
0.000697425
0.207132
-1.44693e-05
0.000649421
0.190388
0.000592165
0.16987
-1.95905e-08
2.04386e-05
0.000594832
0.164023
-2.21649e-09
3.00314e-05
0.000647595
0.18516
2.82253e-05
0.000690987
0.202289
1.68368e-05
0.000721597
0.214379
-1.70539e-08
0.000737466
0.220632
-1.68702e-05
0.000737467
0.220632
-2.82565e-05
0.000721599
0.214379
-3.00593e-05
0.000690991
0.202289
-2.04624e-05
0.0006476
0.185159
0.000594837
0.164022
-2.13781e-08
2.71859e-05
0.000546365
0.151857
-2.6218e-09
3.96299e-05
0.000589878
0.173227