/*--------------------------------*- C++ -*----------------------------------*\
| =========                 |                                                 |
| \\      /  F ield         | OpenFOAM: The Open Source CFD Toolbox           |
|  \\    /   O peration     | Version:  2106                                  |
|   \\  /    A nd           | Website:  www.openfoam.com                      |
|    \\/     M anipulation  |                                                 |
\*---------------------------------------------------------------------------*/
FoamFile
{
    version     2.0;
    format      ascii;
    arch        "LSB;label=32;scalar=64";
    class       volVectorField;
    location    "0.09";
    object      U;
}
// * * * * * * * * * * * * * * * * * * * * * * * * * * * * * * * * * * * * * //

dimensions      [0 1 -1 0 0 0 0];

internalField   nonuniform List<vector> 
10000
(
(0.0414637 0.048734 0.23911)
(0.0353972 0.0552749 0.248962)
(0.0264732 0.0612319 0.256719)
(0.0164291 0.0654062 0.262061)
(0.0055692 0.0675687 0.264771)
(-0.0055692 0.0675687 0.264771)
(-0.0164291 0.0654062 0.262061)
(-0.0264732 0.0612319 0.256719)
(-0.0353972 0.0552749 0.248962)
(-0.0414637 0.048734 0.23911)
(0.108778 0.128951 0.49521)
(0.0916898 0.145321 0.507722)
(0.0683392 0.159777 0.517058)
(0.0422192 0.169769 0.523327)
(0.0142804 0.174914 0.526447)
(-0.0142804 0.174914 0.526447)
(-0.0422192 0.169769 0.523327)
(-0.0683392 0.159777 0.517058)
(-0.0916899 0.145321 0.507722)
(-0.108778 0.128951 0.49521)
(0.134057 0.159283 0.620779)
(0.111551 0.176752 0.630053)
(0.0824259 0.192119 0.63648)
(0.0505928 0.202554 0.640658)
(0.0170572 0.207876 0.642683)
(-0.0170572 0.207876 0.642683)
(-0.0505928 0.202554 0.640658)
(-0.0824259 0.192119 0.63648)
(-0.111551 0.176752 0.630053)
(-0.134057 0.159283 0.620779)
(0.135455 0.160915 0.680298)
(0.111447 0.175688 0.685647)
(0.0816613 0.188824 0.688859)
(0.0498146 0.197574 0.690824)
(0.0167437 0.201992 0.691726)
(-0.0167437 0.201992 0.691726)
(-0.0498146 0.197574 0.690824)
(-0.0816613 0.188824 0.688859)
(-0.111447 0.175688 0.685647)
(-0.135455 0.160915 0.680298)
(0.126995 0.150838 0.706291)
(0.103494 0.162172 0.708508)
(0.0752863 0.172489 0.709286)
(0.0456761 0.179243 0.709621)
(0.0153123 0.182615 0.709714)
(-0.0153123 0.182615 0.709714)
(-0.0456761 0.179243 0.709621)
(-0.0752863 0.172489 0.709286)
(-0.103494 0.162172 0.708508)
(-0.126995 0.150838 0.706291)
(0.114445 0.135913 0.71513)
(0.0924861 0.143987 0.715208)
(0.0668572 0.151618 0.714412)
(0.040365 0.156541 0.713722)
(0.0135005 0.158971 0.713318)
(-0.0135006 0.158971 0.713318)
(-0.040365 0.156541 0.713722)
(-0.0668572 0.151618 0.714412)
(-0.0924861 0.143987 0.715208)
(-0.114445 0.135913 0.71513)
(0.100492 0.119234 0.715549)
(0.0805611 0.124448 0.714336)
(0.0579139 0.129685 0.712669)
(0.0348115 0.133034 0.711429)
(0.0116188 0.13467 0.710767)
(-0.0116188 0.13467 0.710767)
(-0.0348115 0.133034 0.711429)
(-0.057914 0.129685 0.712669)
(-0.0805611 0.124448 0.714336)
(-0.100492 0.119234 0.715549)
(0.0865761 0.102493 0.712264)
(0.0688626 0.105314 0.710394)
(0.0492685 0.108487 0.708361)
(0.0295027 0.110527 0.706905)
(0.00982925 0.111519 0.70615)
(-0.00982931 0.111519 0.70615)
(-0.0295028 0.110527 0.706905)
(-0.0492686 0.108487 0.708361)
(-0.0688626 0.105314 0.710394)
(-0.0865761 0.102493 0.712264)
(0.0734818 0.0866237 0.707771)
(0.0580439 0.0874656 0.705644)
(0.0413573 0.0889057 0.703566)
(0.0246915 0.0898912 0.702109)
(0.00821407 0.0903833 0.701366)
(-0.00821414 0.0903833 0.701366)
(-0.0246916 0.0898912 0.702109)
(-0.0413573 0.0889057 0.703566)
(-0.0580439 0.0874656 0.705644)
(-0.0734818 0.0866236 0.707771)
(0.0617648 0.0719629 0.703377)
(0.0485957 0.0706704 0.701166)
(0.0344152 0.0709314 0.699199)
(0.0204829 0.0712071 0.69786)
(0.00680522 0.0713604 0.697185)
(-0.00680532 0.0713604 0.697185)
(-0.020483 0.0712071 0.69786)
(-0.0344152 0.0709314 0.699199)
(-0.0485958 0.0706703 0.701166)
(-0.0617648 0.0719629 0.703377)
(0.00744224 0.00957243 0.216265)
(0.00619882 0.0117574 0.226141)
(0.00467773 0.013472 0.234245)
(0.0029526 0.0146423 0.239888)
(0.00100962 0.0152498 0.242775)
(-0.00100962 0.0152498 0.242775)
(-0.0029526 0.0146423 0.239888)
(-0.00467773 0.013472 0.234245)
(-0.00619883 0.0117574 0.226141)
(-0.00744225 0.00957242 0.216265)
(0.0302817 0.0370967 0.495238)
(0.0256883 0.0443905 0.511297)
(0.0195207 0.0504845 0.524204)
(0.0122814 0.0547344 0.533055)
(0.0041937 0.0569475 0.537534)
(-0.0041937 0.0569475 0.537534)
(-0.0122814 0.0547344 0.533055)
(-0.0195208 0.0504845 0.524204)
(-0.0256883 0.0443905 0.511297)
(-0.0302818 0.0370967 0.495238)
(0.0499505 0.0604516 0.668829)
(0.0420231 0.07084 0.684121)
(0.0316703 0.0795374 0.696108)
(0.0197679 0.0855397 0.70418)
(0.00672317 0.088639 0.708212)
(-0.00672318 0.088639 0.708212)
(-0.019768 0.0855397 0.70418)
(-0.0316703 0.0795374 0.696108)
(-0.0420231 0.07084 0.684121)
(-0.0499505 0.0604516 0.668829)
(0.0631574 0.0759545 0.772184)
(0.0525529 0.0873244 0.783791)
(0.0392332 0.0967976 0.792583)
(0.024299 0.103243 0.798357)
(0.00823196 0.106539 0.80119)
(-0.00823198 0.106539 0.80119)
(-0.0242991 0.103243 0.798357)
(-0.0392332 0.0967976 0.792583)
(-0.0525529 0.0873244 0.783791)
(-0.0631574 0.0759545 0.772184)
(0.0699667 0.0837747 0.829386)
(0.0575976 0.0946579 0.836596)
(0.0426197 0.103669 0.841758)
(0.0262111 0.109713 0.845006)
(0.00884844 0.112772 0.846547)
(-0.00884847 0.112772 0.846547)
(-0.0262111 0.109713 0.845006)
(-0.0426197 0.103669 0.841758)
(-0.0575976 0.0946579 0.836596)
(-0.0699668 0.0837747 0.829386)
(0.0717691 0.085623 0.857088)
(0.0584816 0.09518 0.860315)
(0.0429235 0.103033 0.862308)
(0.0262297 0.108229 0.863404)
(0.00882657 0.110832 0.863864)
(-0.0088266 0.110832 0.863864)
(-0.0262297 0.108229 0.863404)
(-0.0429236 0.103033 0.862308)
(-0.0584816 0.09518 0.860315)
(-0.0717691 0.085623 0.857088)
(0.0699651 0.0831881 0.866798)
(0.0564523 0.0910095 0.86694)
(0.0411274 0.0973622 0.866574)
(0.0249877 0.101514 0.866105)
(0.00838463 0.103576 0.865792)
(-0.00838468 0.103576 0.865792)
(-0.0249878 0.101514 0.866105)
(-0.0411275 0.0973622 0.866574)
(-0.0564523 0.0910095 0.86694)
(-0.0699652 0.0831881 0.866798)
(0.0657107 0.0778476 0.866292)
(0.0525096 0.083774 0.864337)
(0.0380025 0.0884989 0.86244)
(0.0229749 0.0915626 0.860985)
(0.0076904 0.0930759 0.860195)
(-0.00769047 0.0930759 0.860195)
(-0.0229749 0.0915626 0.860985)
(-0.0380025 0.0884989 0.86244)
(-0.0525097 0.0837739 0.864337)
(-0.0657107 0.0778476 0.866292)
(0.059866 0.0705638 0.860654)
(0.0474434 0.0745505 0.857446)
(0.0341443 0.0776643 0.854697)
(0.0205624 0.0797003 0.852718)
(0.00686946 0.0807123 0.851684)
(-0.00686955 0.0807123 0.851684)
(-0.0205625 0.0797002 0.852718)
(-0.0341443 0.0776643 0.854697)
(-0.0474435 0.0745505 0.857446)
(-0.0598661 0.0705638 0.860654)
(0.0532563 0.0621664 0.853189)
(0.042019 0.0637026 0.849244)
(0.0300603 0.0654082 0.846103)
(0.01804 0.0665788 0.843916)
(0.00601787 0.0671703 0.842795)
(-0.00601797 0.0671703 0.842795)
(-0.0180401 0.0665788 0.843916)
(-0.0300604 0.0654082 0.846103)
(-0.0420191 0.0637026 0.849244)
(-0.0532563 0.0621664 0.853189)
(0.00038868 0.000347832 0.152791)
(0.000487535 0.000453617 0.160617)
(0.00041085 0.000644838 0.167163)
(0.000285603 0.000801162 0.1718)
(0.000101618 0.000891078 0.174198)
(-0.000101621 0.000891079 0.174198)
(-0.000285606 0.000801162 0.1718)
(-0.000410855 0.000644837 0.167163)
(-0.000487541 0.000453614 0.160617)
(-0.000388687 0.000347827 0.152791)
(0.00756578 0.00863971 0.393751)
(0.0069518 0.0104618 0.409685)
(0.00549237 0.0122891 0.422807)
(0.00354316 0.0136594 0.431997)
(0.00122389 0.0144007 0.436712)
(-0.00122389 0.0144007 0.436712)
(-0.00354316 0.0136594 0.431997)
(-0.00549238 0.0122891 0.422807)
(-0.00695181 0.0104618 0.409685)
(-0.0075658 0.0086397 0.393751)
(0.0162693 0.0188256 0.571473)
(0.0144939 0.0223378 0.589641)
(0.0112789 0.0256763 0.604326)
(0.0071843 0.0281258 0.614481)
(0.00246684 0.0294325 0.619646)
(-0.00246685 0.0294325 0.619646)
(-0.00718431 0.0281258 0.614481)
(-0.0112789 0.0256763 0.604326)
(-0.0144939 0.0223378 0.589641)
(-0.0162693 0.0188256 0.571473)
(0.0246201 0.0286595 0.695651)
(0.021498 0.0333794 0.712257)
(0.0165264 0.0377443 0.725385)
(0.0104273 0.0408884 0.734328)
(0.00356392 0.0425467 0.738832)
(-0.00356393 0.0425467 0.738832)
(-0.0104273 0.0408884 0.734328)
(-0.0165264 0.0377443 0.725385)
(-0.0214981 0.0333794 0.712257)
(-0.0246202 0.0286595 0.695651)
(0.0309651 0.0361238 0.777748)
(0.026621 0.0413388 0.790917)
(0.0202544 0.0460848 0.801043)
(0.01268 0.0494513 0.807815)
(0.00431732 0.0512095 0.811183)
(-0.00431734 0.0512095 0.811183)
(-0.01268 0.0494513 0.807815)
(-0.0202545 0.0460848 0.801043)
(-0.0266211 0.0413388 0.790917)
(-0.0309651 0.0361238 0.777748)
(0.0348809 0.0406816 0.82875)
(0.0295957 0.0457618 0.837966)
(0.0223162 0.0503381 0.844798)
(0.0138767 0.0535446 0.849255)
(0.00470922 0.0552049 0.851435)
(-0.00470925 0.0552049 0.851435)
(-0.0138767 0.0535446 0.849255)
(-0.0223163 0.0503381 0.844798)
(-0.0295957 0.0457618 0.837966)
(-0.0348809 0.0406816 0.82875)
(0.0365456 0.0425415 0.857913)
(0.0306486 0.0470344 0.863497)
(0.0229275 0.0510493 0.867412)
(0.0141724 0.0538366 0.869866)
(0.00479559 0.05527 0.871032)
(-0.00479563 0.05527 0.871032)
(-0.0141724 0.0538366 0.869866)
(-0.0229275 0.0510493 0.867412)
(-0.0306487 0.0470344 0.863497)
(-0.0365456 0.0425415 0.857913)
(0.0363462 0.042167 0.872569)
(0.0301558 0.0457816 0.875235)
(0.0224001 0.0489835 0.876893)
(0.0137745 0.0511967 0.877826)
(0.00464906 0.0523302 0.878233)
(-0.00464911 0.0523302 0.878233)
(-0.0137746 0.0511967 0.877826)
(-0.0224002 0.0489835 0.876893)
(-0.0301559 0.0457816 0.875235)
(-0.0363463 0.042167 0.872569)
(0.034722 0.0400647 0.878175)
(0.0285368 0.0426307 0.87873)
(0.0210578 0.044885 0.878818)
(0.0128891 0.0464505 0.878715)
(0.00433989 0.0472541 0.878611)
(-0.00433995 0.0472541 0.878611)
(-0.0128891 0.0464505 0.878715)
(-0.0210578 0.044885 0.878818)
(-0.0285369 0.0426307 0.87873)
(-0.0347221 0.0400647 0.878175)
(0.032208 0.0368286 0.878636)
(0.0262436 0.0380209 0.877775)
(0.0192004 0.0393264 0.876872)
(0.0116898 0.0402494 0.876131)
(0.0039265 0.0407243 0.875718)
(-0.00392658 0.0407243 0.875717)
(-0.0116899 0.0402494 0.876131)
(-0.0192005 0.0393264 0.876872)
(-0.0262436 0.038021 0.877775)
(-0.032208 0.0368286 0.878636)
(0.000441737 0.000601228 0.147622)
(0.000334653 0.000749729 0.154825)
(0.000224499 0.00084718 0.160742)
(0.0001344 0.000901189 0.16491)
(4.45855e-05 0.000926727 0.16706)
(-4.45877e-05 0.000926727 0.16706)
(-0.000134403 0.000901189 0.16491)
(-0.000224503 0.000847178 0.160742)
(-0.000334659 0.000749726 0.154825)
(-0.000441743 0.000601224 0.147622)
(0.00288581 0.00355581 0.383599)
(0.00244416 0.00435461 0.39885)
(0.00184089 0.00501287 0.411232)
(0.00115844 0.00546509 0.419877)
(0.000395613 0.00570061 0.424308)
(-0.000395617 0.00570061 0.424308)
(-0.00115845 0.00546509 0.419877)
(-0.00184089 0.00501286 0.411232)
(-0.00244417 0.00435461 0.39885)
(-0.00288582 0.00355581 0.383599)
(0.00636131 0.00769296 0.562314)
(0.00543719 0.00926787 0.580444)
(0.00413407 0.0106041 0.594935)
(0.0026033 0.0115386 0.604939)
(0.00088937 0.0120268 0.610029)
(-0.000889378 0.0120268 0.610029)
(-0.00260331 0.0115386 0.604939)
(-0.00413408 0.0106041 0.594935)
(-0.00543721 0.00926787 0.580444)
(-0.00636133 0.00769295 0.562314)
(0.0100774 0.0120978 0.691991)
(0.00859075 0.0143492 0.709387)
(0.00652363 0.016274 0.723028)
(0.00409402 0.0176196 0.732318)
(0.00139625 0.0183203 0.737003)
(-0.00139626 0.0183203 0.737003)
(-0.00409403 0.0176196 0.732318)
(-0.00652365 0.016274 0.723028)
(-0.00859077 0.0143492 0.709387)
(-0.0100775 0.0120978 0.691991)
(0.0133572 0.0159642 0.782023)
(0.0113107 0.0186438 0.796685)
(0.00854708 0.0209319 0.807908)
(0.00533811 0.0225217 0.815427)
(0.00181616 0.0233448 0.819179)
(-0.00181617 0.0233448 0.819179)
(-0.00533813 0.0225217 0.815427)
(-0.00854711 0.0209319 0.807908)
(-0.0113107 0.0186438 0.796685)
(-0.0133573 0.0159642 0.782023)
(0.015857 0.0188835 0.841774)
(0.0133143 0.0217074 0.852933)
(0.00999779 0.0241046 0.861225)
(0.00621111 0.0257568 0.866669)
(0.0021076 0.0266065 0.869351)
(-0.00210762 0.0266065 0.869351)
(-0.00621113 0.0257568 0.866669)
(-0.00999782 0.0241046 0.861225)
(-0.0133143 0.0217074 0.852933)
(-0.0158571 0.0188835 0.841774)
(0.017449 0.0207065 0.879405)
(0.0145152 0.0234164 0.887132)
(0.0108263 0.0256942 0.89266)
(0.00669011 0.0272512 0.896194)
(0.00226413 0.0280471 0.897904)
(-0.00226416 0.0280471 0.897904)
(-0.00669014 0.0272512 0.896194)
(-0.0108263 0.0256942 0.89266)
(-0.0145152 0.0234164 0.887132)
(-0.0174491 0.0207065 0.879405)
(0.0181316 0.0214294 0.901635)
(0.0149383 0.023812 0.906452)
(0.0110689 0.0257872 0.90972)
(0.00680611 0.0271297 0.911725)
(0.00229771 0.0278131 0.912667)
(-0.00229774 0.0278131 0.912667)
(-0.00680615 0.0271298 0.911725)
(-0.0110689 0.0257872 0.90972)
(-0.0149383 0.023812 0.906452)
(-0.0181316 0.0214294 0.901635)
(0.0179814 0.0211179 0.913619)
(0.0146865 0.0230063 0.916222)
(0.0108162 0.0245491 0.917837)
(0.0066214 0.0256006 0.918746)
(0.00223026 0.026136 0.919144)
(-0.00223031 0.026136 0.919144)
(-0.00662144 0.0256006 0.918746)
(-0.0108163 0.0245492 0.917837)
(-0.0146865 0.0230063 0.916222)
(-0.0179815 0.021118 0.913619)
(0.0171907 0.019973 0.91911)
(0.0139438 0.0210851 0.920216)
(0.0101937 0.0221253 0.92075)
(0.00621161 0.022844 0.920949)
(0.00208758 0.0232109 0.920999)
(-0.00208762 0.0232109 0.920999)
(-0.00621165 0.022844 0.920949)
(-0.0101937 0.0221253 0.92075)
(-0.0139438 0.0210851 0.920216)
(-0.0171908 0.019973 0.91911)
(2.68948e-05 1.19941e-05 0.142589)
(4.14927e-05 2.02144e-05 0.149639)
(3.57355e-05 4.03459e-05 0.155443)
(2.59169e-05 5.73309e-05 0.159542)
(9.30814e-06 6.73046e-05 0.161659)
(-9.31033e-06 6.7304e-05 0.161659)
(-2.59196e-05 5.73299e-05 0.159542)
(-3.57387e-05 4.03449e-05 0.155443)
(-4.14962e-05 2.02127e-05 0.149639)
(-2.68991e-05 1.19909e-05 0.142589)
(0.000769718 0.000861756 0.372404)
(0.000721071 0.00106654 0.387505)
(0.000575356 0.001278 0.399807)
(0.000375077 0.00143952 0.408423)
(0.000130139 0.00152806 0.412847)
(-0.000130144 0.00152806 0.412847)
(-0.000375083 0.00143952 0.408423)
(-0.000575363 0.00127799 0.399807)
(-0.000721079 0.00106654 0.387505)
(-0.000769728 0.00086175 0.372404)
(0.0020125 0.00231094 0.548322)
(0.00182222 0.00280813 0.566528)
(0.00143681 0.00328772 0.581153)
(0.00092523 0.00364716 0.591293)
(0.000319378 0.00384152 0.596466)
(-0.000319385 0.00384152 0.596466)
(-0.000925239 0.00364716 0.591293)
(-0.00143682 0.00328772 0.581153)
(-0.00182223 0.00280812 0.566528)
(-0.00201252 0.00231093 0.548322)
(0.00352669 0.00408624 0.677963)
(0.0031353 0.00488499 0.69578)
(0.00244908 0.00563366 0.709853)
(0.00156436 0.00618678 0.719499)
(0.000537997 0.00648307 0.724382)
(-0.000538006 0.00648307 0.724382)
(-0.00156437 0.00618678 0.719499)
(-0.0024491 0.00563365 0.709853)
(-0.00313531 0.00488498 0.69578)
(-0.00352671 0.00408623 0.677963)
(0.00501739 0.00583182 0.769894)
(0.0043998 0.00686103 0.785325)
(0.00340775 0.00780967 0.797271)
(0.00216204 0.00850224 0.805349)
(0.000741154 0.00887029 0.809404)
(-0.000741166 0.00887029 0.809404)
(-0.00216205 0.00850224 0.805349)
(-0.00340777 0.00780967 0.797271)
(-0.00439982 0.00686103 0.785325)
(-0.00501742 0.00583181 0.769894)
(0.00628618 0.00730761 0.832689)
(0.00544708 0.00845756 0.844895)
(0.00418523 0.0095045 0.854129)
(0.00263901 0.0102612 0.86028)
(0.000901968 0.0106605 0.863339)
(-0.000901983 0.0106605 0.863339)
(-0.00263903 0.0102612 0.86028)
(-0.00418525 0.0095045 0.854129)
(-0.0054471 0.00845755 0.844895)
(-0.00628621 0.0073076 0.832689)
(0.00722028 0.00837807 0.873874)
(0.00618788 0.00953109 0.882824)
(0.00471846 0.0105692 0.889421)
(0.00295823 0.0113132 0.893741)
(0.00100823 0.0117035 0.895866)
(-0.00100825 0.0117035 0.895866)
(-0.00295825 0.0113132 0.893741)
(-0.00471848 0.0105692 0.889421)
(-0.0061879 0.00953108 0.882824)
(-0.00722031 0.00837806 0.873874)
(0.00777204 0.00898509 0.899714)
(0.00659143 0.0100333 0.905828)
(0.00499036 0.0109656 0.910206)
(0.00311198 0.01163 0.913015)
(0.0010578 0.0119769 0.914378)
(-0.00105782 0.0119769 0.914378)
(-0.003112 0.01163 0.913015)
(-0.00499039 0.0109656 0.910206)
(-0.00659146 0.0100333 0.905828)
(-0.00777206 0.00898508 0.899714)
(0.00794814 0.0091303 0.915055)
(0.00667599 0.00998508 0.918956)
(0.00501828 0.0107334 0.921661)
(0.00311296 0.0112657 0.923346)
(0.00105525 0.0115428 0.924147)
(-0.00105527 0.0115428 0.924147)
(-0.00311298 0.0112657 0.923346)
(-0.0050183 0.0107334 0.92166)
(-0.00667602 0.00998507 0.918955)
(-0.00794816 0.00913029 0.915055)
(0.00781693 0.00890299 0.923434)
(0.00649834 0.00943751 0.925837)
(0.00483708 0.00994722 0.927414)
(0.00298167 0.010309 0.928339)
(0.00100759 0.0104965 0.92876)
(-0.00100762 0.0104965 0.92876)
(-0.0029817 0.010309 0.928339)
(-0.00483711 0.00994722 0.927414)
(-0.00649837 0.00943751 0.925837)
(-0.00781695 0.00890299 0.923434)
(5.22519e-05 7.14574e-05 0.141956)
(3.8147e-05 8.92712e-05 0.148935)
(2.37191e-05 0.000100018 0.15466)
(1.35556e-05 0.000105078 0.158698)
(4.35651e-06 0.000107217 0.160781)
(-4.35873e-06 0.000107217 0.160781)
(-1.35578e-05 0.000105078 0.158698)
(-2.37215e-05 0.000100017 0.15466)
(-3.81496e-05 8.92698e-05 0.148935)
(-5.22551e-05 7.14549e-05 0.141956)
(0.00038355 0.000472096 0.370707)
(0.000323043 0.000579816 0.385683)
(0.000240616 0.000667057 0.397844)
(0.000150489 0.000726011 0.406352)
(5.12047e-05 0.000756518 0.410718)
(-5.12086e-05 0.000756518 0.410718)
(-0.000150493 0.00072601 0.406352)
(-0.000240621 0.000667055 0.397844)
(-0.000323049 0.000579812 0.385683)
(-0.000383557 0.000472091 0.370707)
(0.000926697 0.00111877 0.54615)
(0.000794715 0.00135793 0.564275)
(0.000604368 0.00156072 0.578791)
(0.00038087 0.00170296 0.588847)
(0.000130148 0.00177752 0.593975)
(-0.000130154 0.00177752 0.593975)
(-0.000380877 0.00170296 0.588847)
(-0.000604376 0.00156071 0.578791)
(-0.000794723 0.00135793 0.564275)
(-0.000926707 0.00111876 0.54615)
(0.0015919 0.00190776 0.676054)
(0.00136865 0.00228815 0.693908)
(0.00104536 0.00261595 0.707976)
(0.00065895 0.00284794 0.717611)
(0.000225232 0.00296972 0.722489)
(-0.00022524 0.00296972 0.722489)
(-0.000658958 0.00284794 0.717611)
(-0.00104537 0.00261595 0.707976)
(-0.00136866 0.00228815 0.693908)
(-0.00159191 0.00190775 0.676054)
(0.00227447 0.00271412 0.768914)
(0.00194934 0.00321372 0.78454)
(0.00148672 0.00364613 0.796615)
(0.00093487 0.00395203 0.80478)
(0.00031917 0.00411218 0.808879)
(-0.000319179 0.00411218 0.808879)
(-0.00093488 0.00395202 0.80478)
(-0.00148673 0.00364612 0.796615)
(-0.00194935 0.00321371 0.78454)
(-0.00227448 0.00271411 0.768914)
(0.00289252 0.00343974 0.833141)
(0.0024642 0.00401606 0.845702)
(0.00187179 0.00451397 0.855199)
(0.00117263 0.00486475 0.861531)
(0.000399611 0.00504763 0.864683)
(-0.000399622 0.00504763 0.864683)
(-0.00117264 0.00486475 0.861531)
(-0.00187181 0.00451396 0.855199)
(-0.00246422 0.00401605 0.845702)
(-0.00289253 0.00343973 0.833141)
(0.00338668 0.00401336 0.876075)
(0.00286331 0.00461405 0.885515)
(0.00216351 0.00512984 0.892489)
(0.00134958 0.00549133 0.897069)
(0.000458932 0.00567895 0.899327)
(-0.000458946 0.00567895 0.899327)
(-0.0013496 0.00549133 0.897069)
(-0.00216353 0.00512984 0.892489)
(-0.00286333 0.00461404 0.885515)
(-0.0033867 0.00401335 0.876075)
(0.00371876 0.00438775 0.903803)
(0.00311774 0.00495847 0.910509)
(0.00234247 0.00544395 0.915348)
(0.00145479 0.00578282 0.918474)
(0.000493612 0.00595806 0.92)
(-0.000493628 0.00595806 0.92)
(-0.00145481 0.00578282 0.918474)
(-0.00234249 0.00544395 0.915348)
(-0.00311776 0.00495846 0.910509)
(-0.00371878 0.00438775 0.903803)
(0.00387279 0.00453665 0.921011)
(0.00322082 0.00502661 0.925574)
(0.00240594 0.00543874 0.928798)
(0.00148762 0.00572662 0.930841)
(0.000503584 0.0058752 0.931824)
(-0.000503602 0.0058752 0.931824)
(-0.00148764 0.00572662 0.930841)
(-0.00240596 0.00543874 0.928798)
(-0.00322084 0.00502661 0.925574)
(-0.00387281 0.00453665 0.921011)
(0.0038659 0.00447871 0.931088)
(0.00318987 0.00480885 0.934222)
(0.00236351 0.00511201 0.936361)
(0.00145393 0.00532428 0.937669)
(0.00049088 0.00543364 0.938282)
(-0.000490898 0.00543364 0.938282)
(-0.00145395 0.00532429 0.937668)
(-0.00236353 0.00511201 0.936361)
(-0.00318988 0.00480885 0.934222)
(-0.00386591 0.00447871 0.931088)
(4.18016e-06 2.39491e-06 0.141274)
(5.75079e-06 3.76517e-06 0.148233)
(4.645e-06 6.55794e-06 0.153943)
(3.32038e-06 8.80066e-06 0.157972)
(1.17739e-06 1.01015e-05 0.160052)
(-1.17921e-06 1.01014e-05 0.160052)
(-3.3223e-06 8.80023e-06 0.157972)
(-4.64708e-06 6.5571e-06 0.153943)
(-5.7529e-06 3.7639e-06 0.148233)
(-4.18253e-06 2.39309e-06 0.141274)
(0.000117859 0.000133081 0.369082)
(0.000108869 0.000165166 0.384027)
(8.60056e-05 0.000197229 0.396168)
(5.57992e-05 0.000221435 0.404666)
(1.93085e-05 0.00023465 0.409028)
(-1.93121e-05 0.000234649 0.409028)
(-5.58029e-05 0.000221433 0.404666)
(-8.60096e-05 0.000197226 0.396168)
(-0.000108873 0.000165163 0.384027)
(-0.000117864 0.000133078 0.369082)
(0.000322754 0.000372299 0.543975)
(0.000290671 0.000455178 0.562087)
(0.000228554 0.000533669 0.576603)
(0.000147048 0.00059235 0.586665)
(5.07363e-05 0.000624076 0.591797)
(-5.07417e-05 0.000624076 0.591797)
(-0.000147054 0.000592348 0.586665)
(-0.00022856 0.000533666 0.576603)
(-0.000290677 0.000455173 0.562087)
(-0.000322761 0.000372294 0.543975)
(0.000591086 0.000686672 0.673699)
(0.000525286 0.000828195 0.691586)
(0.000410855 0.00095951 0.705693)
(0.00026289 0.00105686 0.715365)
(9.04948e-05 0.00110915 0.720263)
(-9.05018e-05 0.00110915 0.720263)
(-0.000262897 0.00105685 0.715365)
(-0.000410863 0.000959506 0.705693)
(-0.000525293 0.00082819 0.691586)
(-0.000591095 0.000686666 0.673699)
(0.000879119 0.00102336 0.766701)
(0.000773256 0.0012173 0.782419)
(0.000601354 0.00139519 0.794586)
(0.000382898 0.00152604 0.802825)
(0.000131508 0.00159595 0.806966)
(-0.000131516 0.00159595 0.806966)
(-0.000382906 0.00152604 0.802825)
(-0.000601363 0.00139518 0.794586)
(-0.000773265 0.0012173 0.782419)
(-0.000879128 0.00102335 0.766701)
(0.00115029 0.0013382 0.831322)
(0.0010023 0.00156848 0.844037)
(0.000774777 0.00177781 0.85368)
(0.000490946 0.00193071 0.860125)
(0.00016823 0.00201197 0.863339)
(-0.000168239 0.00201197 0.863339)
(-0.000490956 0.00193071 0.860125)
(-0.000774787 0.0017778 0.85368)
(-0.00100231 0.00156848 0.844037)
(-0.0011503 0.00133819 0.831322)
(0.00137672 0.00159767 0.874824)
(0.00118864 0.00184266 0.884476)
(0.000913119 0.00206338 0.891642)
(0.000575831 0.00222359 0.896367)
(0.000196851 0.00230832 0.898704)
(-0.000196861 0.00230832 0.898704)
(-0.000575842 0.00222359 0.896367)
(-0.000913131 0.00206337 0.891642)
(-0.00118865 0.00184265 0.884476)
(-0.00137673 0.00159767 0.874824)
(0.00153934 0.00177861 0.903221)
(0.00131706 0.00201484 0.910183)
(0.00100548 0.00222546 0.915248)
(0.000631032 0.00237755 0.918544)
(0.000215198 0.00245764 0.92016)
(-0.00021521 0.00245764 0.92016)
(-0.000631044 0.00237755 0.918544)
(-0.00100549 0.00222546 0.915248)
(-0.00131707 0.00201484 0.910183)
(-0.00153935 0.00177861 0.903221)
(0.00162974 0.00186934 0.921129)
(0.00138213 0.00207471 0.925979)
(0.00104808 0.00225483 0.929452)
(0.000654378 0.00238444 0.931679)
(0.000222558 0.00245239 0.932758)
(-0.000222571 0.00245238 0.932758)
(-0.000654391 0.00238444 0.931679)
(-0.00104809 0.00225483 0.929452)
(-0.00138213 0.00207471 0.925979)
(-0.00162975 0.00186934 0.921129)
(0.00165284 0.00188074 0.931872)
(0.00138715 0.00202255 0.935323)
(0.00104133 0.00215404 0.937726)
(0.000645954 0.00224783 0.939222)
(0.000218952 0.00229667 0.939934)
(-0.000218966 0.00229667 0.939934)
(-0.000645967 0.00224783 0.939222)
(-0.00104134 0.00215404 0.937726)
(-0.00138716 0.00202255 0.935323)
(-0.00165284 0.00188074 0.931872)
(7.58085e-06 1.0368e-05 0.141153)
(5.47712e-06 1.29781e-05 0.148101)
(3.29811e-06 1.45282e-05 0.153799)
(1.85454e-06 1.52164e-05 0.157819)
(5.87388e-07 1.5496e-05 0.159893)
(-5.88983e-07 1.5496e-05 0.159893)
(-1.85617e-06 1.52161e-05 0.157819)
(-3.29979e-06 1.45277e-05 0.153799)
(-5.47883e-06 1.29772e-05 0.148101)
(-7.58255e-06 1.03666e-05 0.141153)
(6.29813e-05 7.71507e-05 0.368745)
(5.31777e-05 9.48022e-05 0.383669)
(3.96026e-05 0.000109129 0.395786)
(2.4765e-05 0.000118823 0.404265)
(8.42206e-06 0.000123846 0.408617)
(-8.42534e-06 0.000123846 0.408617)
(-2.47683e-05 0.000118822 0.404265)
(-3.96059e-05 0.000109128 0.395786)
(-5.3181e-05 9.48002e-05 0.383669)
(-6.29845e-05 7.71481e-05 0.368745)
(0.00015788 0.000189946 0.543511)
(0.000135827 0.000231065 0.561605)
(0.000103482 0.000266032 0.576099)
(6.52903e-05 0.000290689 0.586145)
(2.23204e-05 0.000303655 0.591268)
(-2.2325e-05 0.000303654 0.591268)
(-6.52949e-05 0.000290688 0.586145)
(-0.000103487 0.00026603 0.576099)
(-0.000135832 0.000231062 0.561605)
(-0.000157885 0.000189942 0.543511)
(0.00027969 0.000334222 0.673229)
(0.0002415 0.000402453 0.691115)
(0.000185058 0.000461504 0.705216)
(0.000116923 0.00050362 0.714882)
(4.00095e-05 0.000525828 0.719778)
(-4.00148e-05 0.000525828 0.719778)
(-0.000116929 0.000503619 0.714882)
(-0.000185064 0.000461503 0.705216)
(-0.000241507 0.00040245 0.691115)
(-0.000279695 0.000334217 0.673229)
(0.000411598 0.000489872 0.766349)
(0.00035473 0.000583226 0.782094)
(0.0002718 0.000664536 0.794278)
(0.000171487 0.000722625 0.802529)
(5.86455e-05 0.000753219 0.806677)
(-5.86509e-05 0.000753219 0.806677)
(-0.000171493 0.000722625 0.802529)
(-0.000271807 0.000664534 0.794278)
(-0.000354738 0.000583222 0.782094)
(-0.000411605 0.000489866 0.766349)
(0.00053868 0.000638964 0.831198)
(0.000462068 0.000751034 0.843973)
(0.000353037 0.000848672 0.853661)
(0.000222114 0.000918276 0.860139)
(7.58563e-05 0.000954825 0.863369)
(-7.58621e-05 0.000954825 0.863369)
(-0.00022212 0.000918276 0.860139)
(-0.000353044 0.00084867 0.853661)
(-0.000462077 0.00075103 0.843973)
(-0.000538688 0.000638958 0.831198)
(0.000648272 0.000766247 0.875015)
(0.000552509 0.000887634 0.884761)
(0.000420338 0.000992984 0.892)
(0.000263514 0.00106782 0.896778)
(8.98361e-05 0.00110697 0.899142)
(-8.98425e-05 0.00110697 0.899142)
(-0.000263521 0.00106781 0.896778)
(-0.000420346 0.000992981 0.892)
(-0.000552518 0.00088763 0.884761)
(-0.000648281 0.000766242 0.875015)
(0.00073045 0.000859454 0.903787)
(0.000617983 0.000979197 0.910872)
(0.000467851 0.00108241 0.916036)
(0.000292153 0.00115548 0.919402)
(9.94005e-05 0.00119359 0.921054)
(-9.94079e-05 0.00119359 0.921054)
(-0.00029216 0.00115548 0.919402)
(-0.000467859 0.0010824 0.916036)
(-0.000617991 0.000979191 0.910872)
(-0.000730459 0.000859452 0.903787)
(0.000779267 0.0009099 0.922095)
(0.000654416 0.00101682 0.927093)
(0.000492752 0.00110804 0.930687)
(0.000306377 0.00117259 0.932998)
(0.000104003 0.00120615 0.934121)
(-0.000104012 0.00120615 0.934121)
(-0.000306386 0.00117259 0.932998)
(-0.000492759 0.00110803 0.930687)
(-0.000654419 0.00101682 0.927093)
(-0.000779275 0.000909895 0.922095)
(0.000795265 0.000918751 0.933226)
(0.000662369 0.000995153 0.936852)
(0.00049452 0.00106495 0.939393)
(0.000305833 0.0011142 0.940986)
(0.00010352 0.00113971 0.941747)
(-0.000103532 0.00113971 0.941747)
(-0.000305844 0.0011142 0.940986)
(-0.000494527 0.00106495 0.939393)
(-0.000662374 0.000995149 0.936852)
(-0.000795265 0.000918747 0.933226)
(1.05507e-06 1.02877e-06 0.141043)
(1.09287e-06 1.42087e-06 0.147988)
(7.85705e-07 1.92095e-06 0.153683)
(5.28242e-07 2.272e-06 0.157701)
(1.80936e-07 2.46711e-06 0.159775)
(-1.82176e-07 2.46705e-06 0.159775)
(-5.29463e-07 2.27175e-06 0.157701)
(-7.86954e-07 1.92051e-06 0.153683)
(-1.094e-06 1.42034e-06 0.147988)
(-1.05614e-06 1.02794e-06 0.141043)
(2.18763e-05 2.52409e-05 0.368478)
(1.97133e-05 3.13333e-05 0.383395)
(1.53417e-05 3.71002e-05 0.395508)
(9.86544e-06 4.13474e-05 0.403985)
(3.39819e-06 4.36428e-05 0.408335)
(-3.40074e-06 4.36426e-05 0.408335)
(-9.86795e-06 4.13468e-05 0.403985)
(-1.53442e-05 3.70991e-05 0.395508)
(-1.97155e-05 3.1332e-05 0.383395)
(-2.18785e-05 2.52393e-05 0.368478)
(5.98174e-05 6.96604e-05 0.543145)
(5.32553e-05 8.53232e-05 0.561235)
(4.15835e-05 9.975e-05 0.575727)
(2.66459e-05 0.000110416 0.585771)
(9.175e-06 0.000116154 0.590895)
(-9.17844e-06 0.000116153 0.590895)
(-2.66494e-05 0.000110415 0.585771)
(-4.15869e-05 9.97485e-05 0.575727)
(-5.32583e-05 8.53212e-05 0.561235)
(-5.98207e-05 6.9658e-05 0.543145)
(0.000110455 0.000128995 0.672823)
(9.75662e-05 0.000156092 0.690712)
(7.60588e-05 0.000180803 0.704816)
(4.85831e-05 0.00019903 0.714487)
(1.67099e-05 0.000208801 0.719385)
(-1.67139e-05 0.000208801 0.719385)
(-4.85872e-05 0.000199029 0.714487)
(-7.60629e-05 0.000180801 0.704816)
(-9.75698e-05 0.00015609 0.690712)
(-0.000110459 0.000128992 0.672823)
(0.000166455 0.000194388 0.765959)
(0.000145984 0.000232289 0.781716)
(0.00011341 0.00026665 0.793914)
(7.21946e-05 0.000291893 0.802176)
(2.47939e-05 0.000305376 0.806329)
(-2.47983e-05 0.000305376 0.806329)
(-7.2199e-05 0.000291892 0.802176)
(-0.000113414 0.000266648 0.793914)
(-0.000145987 0.000232287 0.781717)
(-0.00016646 0.000194386 0.765959)
(0.00022122 0.000257873 0.83087)
(0.00019261 0.000303982 0.843671)
(0.000148969 0.000345552 0.853383)
(9.44773e-05 0.000375953 0.859879)
(3.23894e-05 0.000392128 0.86312)
(-3.23944e-05 0.000392128 0.86312)
(-9.44823e-05 0.000375951 0.859879)
(-0.000148974 0.000345549 0.853383)
(-0.000192613 0.00030398 0.843671)
(-0.000221225 0.000257872 0.83087)
(0.000269178 0.000312758 0.874789)
(0.000232598 0.000363114 0.884573)
(0.000178994 0.000408215 0.891847)
(0.000113066 0.000441047 0.896651)
(3.86858e-05 0.000458449 0.899029)
(-3.86916e-05 0.000458449 0.899029)
(-0.000113072 0.000441046 0.896651)
(-0.000179 0.000408213 0.891847)
(-0.000232601 0.000363113 0.884573)
(-0.000269182 0.000312756 0.874789)
(0.000305975 0.000353745 0.903687)
(0.000262341 0.000403675 0.910822)
(0.000200801 0.000448003 0.916031)
(0.000126303 0.000480128 0.91943)
(4.31219e-05 0.00049709 0.9211)
(-4.31281e-05 0.00049709 0.9211)
(-0.00012631 0.000480128 0.91943)
(-0.000200807 0.000448002 0.916031)
(-0.000262344 0.000403673 0.910822)
(-0.000305979 0.000353744 0.903687)
(0.000329115 0.00037749 0.922136)