/*--------------------------------*- C++ -*----------------------------------*\
| =========                 |                                                 |
| \\      /  F ield         | OpenFOAM: The Open Source CFD Toolbox           |
|  \\    /   O peration     | Version:  2106                                  |
|   \\  /    A nd           | Website:  www.openfoam.com                      |
|    \\/     M anipulation  |                                                 |
\*---------------------------------------------------------------------------*/
FoamFile
{
    version     2.0;
    format      ascii;
    arch        "LSB;label=32;scalar=64";
    class       volVectorField;
    location    "0.56";
    object      U;
}
// * * * * * * * * * * * * * * * * * * * * * * * * * * * * * * * * * * * * * //

dimensions      [0 1 -1 0 0 0 0];

internalField   nonuniform List<vector> 
10000
(
(0.0625617 0.0737189 0.345083)
(0.0533576 0.0838389 0.359562)
(0.0398483 0.0929901 0.370925)
(0.0247204 0.0993724 0.378774)
(0.00837763 0.102672 0.382762)
(-0.00837764 0.102672 0.382762)
(-0.0247204 0.0993724 0.378774)
(-0.0398483 0.0929901 0.370925)
(-0.0533576 0.0838389 0.359562)
(-0.0625617 0.0737189 0.345083)
(0.172058 0.204128 0.727808)
(0.145239 0.23137 0.747456)
(0.10843 0.255331 0.762095)
(0.0670858 0.271917 0.771992)
(0.0227084 0.280472 0.776941)
(-0.0227084 0.280472 0.776941)
(-0.0670859 0.271917 0.771992)
(-0.10843 0.255331 0.762095)
(-0.145239 0.23137 0.747456)
(-0.172058 0.204128 0.727808)
(0.22263 0.264353 0.923715)
(0.185824 0.296061 0.939541)
(0.137843 0.323749 0.950605)
(0.0848623 0.342691 0.957908)
(0.028655 0.352397 0.96149)
(-0.0286551 0.352397 0.96149)
(-0.0848623 0.342691 0.957908)
(-0.137843 0.323749 0.950605)
(-0.185824 0.296061 0.939541)
(-0.22263 0.264353 0.923715)
(0.237647 0.28173 1.02283)
(0.196414 0.311606 1.03333)
(0.144798 0.337747 1.04)
(0.0887313 0.35543 1.04426)
(0.0298936 0.364432 1.0463)
(-0.0298937 0.364432 1.0463)
(-0.0887314 0.35543 1.04426)
(-0.144799 0.337747 1.04)
(-0.196414 0.311606 1.03333)
(-0.237647 0.281729 1.02283)
(0.235703 0.278928 1.07118)
(0.193206 0.304923 1.07714)
(0.141684 0.327805 1.08026)
(0.0864744 0.343149 1.08214)
(0.029077 0.350913 1.08299)
(-0.0290772 0.350913 1.08299)
(-0.0864745 0.343149 1.08214)
(-0.141684 0.327805 1.08026)
(-0.193207 0.304923 1.07714)
(-0.235703 0.278928 1.07118)
(0.224687 0.265409 1.09226)
(0.182783 0.286809 1.09484)
(0.133405 0.305798 1.09549)
(0.0811203 0.318458 1.09574)
(0.0272287 0.324826 1.09579)
(-0.0272289 0.324826 1.09579)
(-0.0811205 0.318458 1.09574)
(-0.133405 0.305798 1.09549)
(-0.182783 0.286809 1.09484)
(-0.224687 0.265409 1.09226)
(0.208342 0.245474 1.09887)
(0.168202 0.26204 1.09915)
(0.122211 0.276886 1.09823)
(0.0740534 0.286764 1.09747)
(0.0248149 0.291713 1.09704)
(-0.0248151 0.291713 1.09704)
(-0.0740536 0.286764 1.09747)
(-0.122212 0.276886 1.09823)
(-0.168202 0.26204 1.09915)
(-0.208343 0.245474 1.09887)
(0.189 0.22185 1.09818)
(0.151409 0.233626 1.097)
(0.109546 0.244318 1.0952)
(0.066162 0.251467 1.09389)
(0.0221354 0.255048 1.0932)
(-0.0221357 0.255048 1.0932)
(-0.0661622 0.251467 1.09389)
(-0.109546 0.244318 1.0952)
(-0.151409 0.233626 1.097)
(-0.189 0.22185 1.09818)
(0.168192 0.196325 1.09419)
(0.133778 0.2035 1.09213)
(0.0963962 0.210165 1.08991)
(0.058038 0.214751 1.08836)
(0.0193878 0.217069 1.08757)
(-0.0193881 0.217069 1.08757)
(-0.0580382 0.214751 1.08836)
(-0.0963964 0.210165 1.08991)
(-0.133778 0.2035 1.09213)
(-0.168192 0.196325 1.09419)
(0.147084 0.170552 1.08914)
(0.116508 0.171639 1.08661)
(0.083371 0.174908 1.08425)
(0.0500106 0.17729 1.08266)
(0.0166766 0.178514 1.08186)
(-0.0166769 0.178514 1.08186)
(-0.0500109 0.17729 1.08266)
(-0.0833712 0.174908 1.08425)
(-0.116508 0.171639 1.08661)
(-0.147084 0.170552 1.08914)
(0.0111945 0.0142997 0.266511)
(0.00940493 0.0175902 0.278773)
(0.00710153 0.0202334 0.288814)
(0.00449546 0.0220456 0.295803)
(0.00153811 0.0229897 0.299381)
(-0.00153814 0.0229897 0.299381)
(-0.00449549 0.0220456 0.295803)
(-0.00710155 0.0202334 0.288814)
(-0.00940495 0.0175902 0.278773)
(-0.0111945 0.0142997 0.266511)
(0.0544087 0.0658323 0.629508)
(0.0467202 0.0792047 0.651454)
(0.0357561 0.0906631 0.669054)
(0.0226051 0.0987822 0.681158)
(0.00773561 0.103044 0.687302)
(-0.00773569 0.103044 0.687302)
(-0.0226051 0.0987822 0.681158)
(-0.0357561 0.0906631 0.669054)
(-0.0467202 0.0792047 0.651454)
(-0.0544087 0.0658323 0.629508)
(0.0977637 0.116773 0.876488)
(0.0834092 0.138105 0.900313)
(0.0634989 0.156412 0.919)
(0.0399037 0.169332 0.931697)
(0.0136148 0.17608 0.93809)
(-0.0136149 0.17608 0.93809)
(-0.0399038 0.169332 0.931697)
(-0.063499 0.156412 0.919)
(-0.0834093 0.138105 0.900313)
(-0.0977637 0.116773 0.876488)
(0.133828 0.158674 1.04427)
(0.113209 0.184796 1.06627)
(0.0856313 0.207107 1.08311)
(0.0535069 0.22274 1.09441)
(0.0182043 0.230859 1.10005)
(-0.0182045 0.230859 1.10005)
(-0.0535071 0.22274 1.09441)
(-0.0856315 0.207107 1.08311)
(-0.113209 0.184796 1.06627)
(-0.133829 0.158674 1.04427)
(0.159643 0.188206 1.15732)
(0.133891 0.216059 1.17594)
(0.10064 0.239689 1.18981)
(0.0625615 0.256127 1.199)
(0.0212302 0.264617 1.20355)
(-0.0212305 0.264617 1.20355)
(-0.0625617 0.256127 1.199)
(-0.10064 0.239689 1.18981)
(-0.133891 0.216059 1.17594)
(-0.159643 0.188206 1.15732)
(0.175253 0.205542 1.23237)
(0.145739 0.23264 1.24719)
(0.108886 0.25543 1.2579)
(0.0673641 0.271177 1.26489)
(0.0228056 0.279267 1.26833)
(-0.0228059 0.279267 1.26833)
(-0.0673644 0.271177 1.26489)
(-0.108886 0.25543 1.2579)
(-0.14574 0.23264 1.24719)
(-0.175253 0.205542 1.23237)
(0.18172 0.212028 1.28123)
(0.149826 0.236474 1.29245)
(0.111283 0.25679 1.30029)
(0.0685365 0.270744 1.30532)
(0.0231504 0.277879 1.30776)
(-0.0231507 0.277879 1.30776)
(-0.0685369 0.270744 1.30532)
(-0.111284 0.25679 1.30029)
(-0.149827 0.236474 1.29245)
(-0.18172 0.212028 1.28123)
(0.180387 0.209299 1.31224)
(0.147439 0.229713 1.32036)
(0.108889 0.246404 1.32581)
(0.0667761 0.257813 1.32925)
(0.0225078 0.263629 1.33089)
(-0.0225082 0.263629 1.33089)
(-0.0667765 0.257813 1.32925)
(-0.108889 0.246404 1.32581)
(-0.14744 0.229713 1.32036)
(-0.180387 0.209299 1.31223)
(0.172714 0.19903 1.33124)
(0.139998 0.214483 1.33687)
(0.102808 0.22676 1.34048)
(0.0627776 0.23517 1.34268)
(0.0211151 0.239452 1.34372)
(-0.0211156 0.239452 1.34372)
(-0.062778 0.23517 1.34268)
(-0.102809 0.22676 1.34048)
(-0.139999 0.214483 1.33687)
(-0.172714 0.19903 1.33124)
(0.16027 0.184028 1.34235)
(0.12905 0.191934 1.34614)
(0.0939922 0.199453 1.34838)
(0.0571054 0.204638 1.34967)
(0.0191602 0.207276 1.35026)
(-0.0191607 0.207276 1.35026)
(-0.0571059 0.204638 1.34967)
(-0.0939926 0.199452 1.34838)
(-0.12905 0.191934 1.34614)
(-0.16027 0.184028 1.34235)
(0.0011211 0.00125198 0.157653)
(0.00113234 0.00159884 0.165953)
(0.000882688 0.0020068 0.172884)
(0.000590841 0.00230897 0.17779)
(0.000205877 0.00247641 0.18033)
(-0.000205906 0.00247641 0.18033)
(-0.000590869 0.00230896 0.17779)
(-0.000882713 0.00200678 0.172884)
(-0.00113236 0.00159883 0.165953)
(-0.00112112 0.00125197 0.157653)
(0.0180061 0.0208941 0.441698)
(0.016193 0.0254905 0.461904)
(0.0126732 0.0298161 0.478499)
(0.00813941 0.0330109 0.490145)
(0.00280464 0.0347271 0.49614)
(-0.00280473 0.0347271 0.49614)
(-0.00813949 0.0330109 0.490145)
(-0.0126733 0.0298161 0.478499)
(-0.0161931 0.0254905 0.461904)
(-0.0180062 0.020894 0.441698)
(0.0410394 0.0477696 0.68532)
(0.0362458 0.0573905 0.712902)
(0.0281586 0.066166 0.735192)
(0.0179372 0.0725827 0.750707)
(0.00615856 0.0759998 0.758652)
(-0.00615871 0.0759998 0.758652)
(-0.0179373 0.0725827 0.750707)
(-0.0281588 0.066166 0.735192)
(-0.0362459 0.0573904 0.712902)
(-0.0410395 0.0477695 0.68532)
(0.0658843 0.0767503 0.887972)
(0.0574258 0.0909143 0.919155)
(0.0442835 0.103587 0.943936)
(0.0280281 0.112755 0.961039)
(0.00959405 0.117603 0.969753)
(-0.00959427 0.117603 0.969753)
(-0.0280283 0.112755 0.961038)
(-0.0442837 0.103587 0.943936)
(-0.057426 0.0909143 0.919155)
(-0.0658845 0.0767502 0.887972)
(0.0880719 0.102481 1.05307)
(0.0758932 0.119719 1.08507)
(0.0581091 0.134916 1.11006)
(0.0365719 0.145803 1.12717)
(0.0124846 0.151523 1.13584)
(-0.0124849 0.151522 1.13584)
(-0.0365722 0.145803 1.12717)
(-0.0581094 0.134916 1.11006)
(-0.0758934 0.119719 1.08507)
(-0.088072 0.10248 1.05307)
(0.105363 0.122284 1.18552)
(0.0898404 0.140847 1.21644)
(0.0683171 0.156987 1.24018)
(0.0427725 0.168448 1.25629)
(0.0145642 0.174433 1.26442)
(-0.0145646 0.174433 1.26442)
(-0.0427728 0.168448 1.25629)
(-0.0683174 0.156987 1.24018)
(-0.0898407 0.140847 1.21644)
(-0.105363 0.122284 1.18552)
(0.11691 0.135198 1.29044)
(0.0986738 0.1534 1.31913)
(0.0745305 0.168991 1.3408)
(0.0464302 0.179974 1.35539)
(0.015771 0.185677 1.36271)
(-0.0157714 0.185677 1.36271)
(-0.0464305 0.179974 1.35539)
(-0.0745309 0.168991 1.3408)
(-0.0986741 0.1534 1.31913)
(-0.11691 0.135198 1.29044)
(0.122592 0.141114 1.37261)
(0.102429 0.157483 1.39847)
(0.0768533 0.171255 1.41772)
(0.0476444 0.180884 1.43057)
(0.0161444 0.185861 1.43699)
(-0.0161449 0.185861 1.43699)
(-0.0476448 0.180884 1.43057)
(-0.0768537 0.171255 1.41772)
(-0.102429 0.157483 1.39847)
(-0.122593 0.141114 1.37261)
(0.122812 0.140474 1.43613)
(0.1016 0.153833 1.45906)
(0.0757027 0.164745 1.47586)
(0.0466896 0.172342 1.48697)
(0.0157804 0.176252 1.49248)
(-0.0157809 0.176252 1.49248)
(-0.0466901 0.172342 1.48697)
(-0.0757032 0.164745 1.47586)
(-0.101601 0.153833 1.45906)
(-0.122812 0.140474 1.43613)
(0.118388 0.135091 1.48438)
(0.0969853 0.143113 1.50486)
(0.0715525 0.150371 1.51931)
(0.0438563 0.155398 1.52873)
(0.0147777 0.15797 1.53337)
(-0.0147782 0.15797 1.53337)
(-0.0438568 0.155398 1.52873)
(-0.071553 0.150371 1.51931)
(-0.0969857 0.143113 1.50486)
(-0.118388 0.135091 1.48438)
(0.000712426 0.000935763 0.137943)
(0.000556778 0.00117334 0.144753)
(0.000381251 0.00134179 0.150297)
(0.000236399 0.00144146 0.154189)
(7.91516e-05 0.00149134 0.156197)
(-7.91779e-05 0.00149134 0.156197)
(-0.000236425 0.00144146 0.154189)
(-0.000381274 0.00134178 0.150297)
(-0.0005568 0.00117332 0.144753)
(-0.000712444 0.000935749 0.137943)
(0.00702831 0.00840423 0.395556)
(0.0061029 0.010359 0.413629)
(0.0046929 0.0120504 0.428259)
(0.00299398 0.0132646 0.438499)
(0.00102821 0.0139106 0.443769)
(-0.00102829 0.0139106 0.443769)
(-0.00299406 0.0132646 0.438499)
(-0.00469298 0.0120504 0.428259)
(-0.00610297 0.010359 0.413629)
(-0.00702836 0.0084042 0.395556)
(0.017234 0.0203496 0.628772)
(0.0150337 0.0247767 0.65545)
(0.0116346 0.0286619 0.67688)
(0.00741211 0.0314825 0.691816)
(0.00254542 0.0329829 0.699482)
(-0.00254556 0.0329829 0.699481)
(-0.00741225 0.0314825 0.691816)
(-0.0116348 0.0286618 0.67688)
(-0.0150338 0.0247766 0.65545)
(-0.0172341 0.0203495 0.628772)
(0.029564 0.0347109 0.835659)
(0.0257054 0.0417565 0.868254)
(0.0198677 0.047939 0.894191)
(0.0126169 0.0524229 0.912178)
(0.00432674 0.0548007 0.921381)
(-0.00432694 0.0548007 0.921381)
(-0.0126171 0.0524228 0.912178)
(-0.0198678 0.047939 0.89419)
(-0.0257055 0.0417564 0.868254)
(-0.0295641 0.0347109 0.835659)
(0.0419706 0.0490576 1.01616)
(0.0362674 0.0582698 1.05225)
(0.0279184 0.0663076 1.08066)
(0.0176593 0.0721079 1.10025)
(0.00604441 0.0751708 1.11025)
(-0.00604467 0.0751708 1.11025)
(-0.0176596 0.0721079 1.10025)
(-0.0279186 0.0663076 1.08066)
(-0.0362676 0.0582697 1.05225)
(-0.0419707 0.0490575 1.01616)
(0.0529661 0.061636 1.17143)
(0.0454213 0.072217 1.20897)
(0.0347804 0.0813629 1.2382)
(0.0219035 0.0879191 1.25825)
(0.00748099 0.0913644 1.26844)
(-0.00748132 0.0913644 1.26844)
(-0.0219038 0.087919 1.25825)
(-0.0347807 0.0813628 1.2382)
(-0.0454215 0.0722169 1.20897)
(-0.0529664 0.0616359 1.17143)
(0.0615685 0.0713099 1.30327)
(0.0523476 0.0823079 1.34065)
(0.039844 0.0916934 1.36943)
(0.024976 0.0983713 1.38906)
(0.00851079 0.101863 1.39901)
(-0.00851118 0.101863 1.39901)
(-0.0249764 0.0983713 1.38906)
(-0.0398443 0.0916933 1.36943)
(-0.0523479 0.0823078 1.34065)
(-0.0615688 0.0713098 1.30327)
(0.0671895 0.0774015 1.41371)
(0.0566022 0.0878451 1.44976)
(0.0428054 0.0966114 1.47721)
(0.0267023 0.102798 1.49583)
(0.00907697 0.106016 1.50523)
(-0.00907741 0.106016 1.50523)
(-0.0267028 0.102798 1.49583)
(-0.0428058 0.0966114 1.47721)
(-0.0566025 0.0878451 1.44976)
(-0.0671898 0.0774014 1.41371)
(0.0696364 0.0796507 1.50475)
(0.058104 0.0886641 1.53879)
(0.0436288 0.0960175 1.5644)
(0.0270691 0.10117 1.58162)
(0.00917659 0.103835 1.59026)
(-0.00917707 0.103835 1.59026)
(-0.0270696 0.10117 1.58162)
(-0.0436292 0.0960175 1.5644)
(-0.0581044 0.088664 1.53879)
(-0.0696368 0.0796507 1.50475)
(0.0690919 0.0788452 1.57808)
(0.0570456 0.0848308 1.61037)
(0.0423984 0.0900335 1.63377)
(0.0261309 0.0936446 1.64929)
(0.00882915 0.0954981 1.65701)
(-0.00882967 0.0954981 1.65701)
(-0.0261314 0.0936446 1.64929)
(-0.0423988 0.0900335 1.63377)
(-0.057046 0.0848307 1.61037)
(-0.0690923 0.0788451 1.57807)
(0.000129646 0.000141712 0.127047)
(0.000120146 0.000185816 0.133393)
(8.87547e-05 0.000231054 0.138551)
(6.07096e-05 0.000262759 0.142178)
(2.09619e-05 0.000280731 0.14405)
(-2.09841e-05 0.000280729 0.14405)
(-6.0731e-05 0.000262754 0.142178)
(-8.87747e-05 0.000231046 0.138551)
(-0.000120164 0.000185805 0.133393)
(-0.000129661 0.000141699 0.127047)
(0.00249968 0.00289131 0.368441)
(0.00223586 0.00358451 0.3857)
(0.00175124 0.00422306 0.399682)
(0.00113181 0.00469814 0.409492)
(0.00039079 0.00495602 0.414548)
(-0.00039086 0.00495602 0.414548)
(-0.00113187 0.00469813 0.409492)
(-0.0017513 0.00422304 0.399682)
(-0.00223592 0.00358448 0.3857)
(-0.00249973 0.00289128 0.368441)
(0.00680914 0.00789928 0.592223)
(0.00604951 0.0096838 0.618416)
(0.00474161 0.0113045 0.639522)
(0.00304704 0.0125102 0.65429)
(0.00105052 0.01316 0.661887)
(-0.00105064 0.01316 0.661887)
(-0.00304716 0.0125102 0.65429)
(-0.00474172 0.0113044 0.639522)
(-0.0060496 0.00968376 0.618416)
(-0.00680922 0.00789923 0.592223)
(0.0124958 0.0144989 0.796871)
(0.0110289 0.0175804 0.829929)
(0.00861935 0.0203528 0.856382)
(0.00551539 0.0224049 0.874827)
(0.00189823 0.0235053 0.884296)
(-0.0018984 0.0235053 0.884296)
(-0.00551556 0.0224048 0.874827)
(-0.00861951 0.0203528 0.856382)
(-0.0110291 0.0175803 0.829929)
(-0.0124959 0.0144989 0.796871)
(0.0186873 0.0216481 0.981632)
(0.0163742 0.0259399 1.01953)
(0.0127395 0.0297656 1.04961)
(0.00811746 0.0325784 1.07051)
(0.00278834 0.0340793 1.08121)
(-0.00278857 0.0340793 1.08121)
(-0.00811768 0.0325784 1.07051)
(-0.0127397 0.0297656 1.04961)
(-0.0163744 0.0259399 1.01953)
(-0.0186874 0.021648 0.981632)
(0.0246171 0.028437 1.14638)
(0.0213986 0.0336324 1.18724)
(0.0165585 0.0382138 1.21938)
(0.0105041 0.041557 1.24162)
(0.00360046 0.0433318 1.25297)
(-0.00360074 0.0433318 1.25297)
(-0.0105044 0.0415569 1.24162)
(-0.0165587 0.0382137 1.21938)
(-0.0213989 0.0336323 1.18724)
(-0.0246173 0.028437 1.14638)
(0.0296729 0.0341485 1.29141)
(0.0255696 0.0397982 1.33356)
(0.0196652 0.0447154 1.36642)
(0.0124162 0.0482745 1.38904)
(0.004246 0.0501538 1.40056)
(-0.00424633 0.0501538 1.40056)
(-0.0124166 0.0482745 1.38904)
(-0.0196655 0.0447154 1.36641)
(-0.0255699 0.0397981 1.33356)
(-0.0296731 0.0341484 1.29141)
(0.0334041 0.0382546 1.41728)
(0.0285164 0.043841 1.45932)
(0.0217851 0.0486247 1.4918)
(0.0136854 0.0520555 1.51405)
(0.00466815 0.0538564 1.52534)
(-0.00466853 0.0538564 1.52534)
(-0.0136858 0.0520555 1.51405)
(-0.0217855 0.0486247 1.4918)
(-0.0285167 0.0438409 1.45932)
(-0.0334043 0.0382546 1.41728)
(0.0355686 0.0404525 1.52457)
(0.0300607 0.045467 1.56557)
(0.0227885 0.0496394 1.59688)
(0.014232 0.0526022 1.61815)
(0.0048402 0.0541464 1.62889)
(-0.00484062 0.0541464 1.62889)
(-0.0142324 0.0526021 1.61815)
(-0.0227888 0.0496394 1.59688)
(-0.0300611 0.045467 1.56557)
(-0.0355689 0.0404525 1.52457)
(0.0361397 0.0410483 1.6137)
(0.0301706 0.0445897 1.6538)
(0.0226172 0.0476538 1.68327)
(0.0140208 0.0497984 1.70301)
(0.00475078 0.0509052 1.71289)
(-0.00475122 0.0509052 1.71289)
(-0.0140213 0.0497984 1.70301)
(-0.0226176 0.0476538 1.68327)
(-0.030171 0.0445897 1.6538)
(-0.03614 0.0410483 1.6137)
(7.90168e-05 0.000106721 0.124109)
(5.52463e-05 0.000135396 0.130258)
(3.38049e-05 0.000151976 0.135225)
(2.06425e-05 0.000160144 0.138711)
(6.69578e-06 0.000164042 0.140508)
(-6.71336e-06 0.00016404 0.140508)
(-2.06598e-05 0.00016014 0.138711)
(-3.38208e-05 0.000151969 0.135225)
(-5.5261e-05 0.000135388 0.130258)
(-7.90294e-05 0.000106711 0.124109)
(0.00102988 0.00123017 0.360024)
(0.000884385 0.00152588 0.376841)
(0.000676174 0.00177466 0.390407)
(0.000431731 0.00195317 0.399916)
(0.000148168 0.00204862 0.404814)
(-0.000148224 0.00204861 0.404814)
(-0.000431786 0.00195316 0.399916)
(-0.000676225 0.00177464 0.390407)
(-0.000884432 0.00152586 0.376841)
(-0.00102992 0.00123014 0.360024)
(0.00283833 0.00334139 0.579926)
(0.0024784 0.00411008 0.605692)
(0.00192401 0.00478065 0.626402)
(0.00123088 0.00527277 0.64089)
(0.000423488 0.00553671 0.648344)
(-0.000423585 0.0055367 0.648344)
(-0.00123098 0.00527275 0.64089)
(-0.0019241 0.00478062 0.626401)
(-0.00247848 0.00411004 0.605692)
(-0.0028384 0.00334135 0.579925)
(0.00532003 0.00622401 0.783066)
(0.00465859 0.00758773 0.816014)
(0.0036278 0.00878946 0.842359)
(0.00231883 0.00967494 0.860745)
(0.000797759 0.0101493 0.870189)
(-0.000797899 0.0101493 0.870189)
(-0.00231896 0.00967492 0.860745)
(-0.00362792 0.00878942 0.842359)
(-0.00465871 0.00758768 0.816013)
(-0.00532013 0.00622396 0.783066)
(0.0081522 0.00949326 0.968931)
(0.00712264 0.0114538 1.00729)
(0.00553975 0.013182 1.03778)
(0.0035326 0.0144527 1.05898)
(0.00121409 0.0151316 1.06986)
(-0.00121427 0.0151316 1.06986)
(-0.00353278 0.0144527 1.05898)
(-0.00553991 0.0131819 1.03777)
(-0.00712279 0.0114538 1.00729)
(-0.00815233 0.00949321 0.968931)
(0.0110062 0.01276 1.13724)
(0.0095686 0.0152106 1.1793)
(0.00741611 0.017359 1.21249)
(0.00471349 0.0189308 1.2355)
(0.00161735 0.0197674 1.24727)
(-0.00161758 0.0197673 1.24727)
(-0.00471371 0.0189308 1.2355)
(-0.00741631 0.0173589 1.21249)
(-0.00956878 0.0152106 1.1793)
(-0.0110063 0.01276 1.13724)
(0.0135788 0.0156688 1.28789)
(0.0117251 0.0184173 1.33205)
(0.0090426 0.0208035 1.36661)
(0.00572407 0.0225375 1.3905)
(0.00196017 0.0234559 1.40269)
(-0.00196044 0.0234559 1.40269)
(-0.00572433 0.0225375 1.3905)
(-0.00904284 0.0208034 1.36661)
(-0.0117253 0.0184173 1.33205)
(-0.013579 0.0156687 1.28789)
(0.0156144 0.0179184 1.42089)
(0.0133735 0.0207183 1.4657)
(0.010252 0.0231155 1.50051)
(0.00645926 0.0248424 1.52445)
(0.00220667 0.0257518 1.53664)
(-0.00220697 0.0257518 1.53664)
(-0.00645956 0.0248424 1.52445)
(-0.0102523 0.0231155 1.50051)
(-0.0133737 0.0207183 1.4657)
(-0.0156147 0.0179183 1.42089)
(0.0169449 0.0192987 1.53615)
(0.0143782 0.0218887 1.58059)
(0.010941 0.0240475 1.61475)
(0.00685375 0.0255864 1.63806)
(0.00233454 0.0263908 1.64986)
(-0.00233488 0.0263908 1.64986)
(-0.00685408 0.0255864 1.63806)
(-0.0109413 0.0240475 1.61475)
(-0.0143784 0.0218886 1.58059)
(-0.0169451 0.0192987 1.53615)
(0.0175071 0.0199084 1.63341)
(0.0146733 0.0218191 1.67758)
(0.0110425 0.0234578 1.71027)
(0.00686579 0.0246081 1.73226)
(0.00232983 0.025203 1.7433)
(-0.00233019 0.025203 1.7433)
(-0.00686613 0.0246081 1.73226)
(-0.0110428 0.0234578 1.71027)
(-0.0146736 0.0218191 1.67758)
(-0.0175074 0.0199084 1.6334)
(1.18413e-05 1.45691e-05 0.122631)
(8.00155e-06 1.99713e-05 0.128713)
(4.4273e-06 2.3509e-05 0.133623)
(3.27069e-06 2.55271e-05 0.13707)
(1.09256e-06 2.66985e-05 0.138848)
(-1.10595e-06 2.66975e-05 0.138848)
(-3.28371e-06 2.55241e-05 0.13707)
(-4.43959e-06 2.35041e-05 0.133623)
(-8.01298e-06 1.99646e-05 0.128713)
(-1.18508e-05 1.45611e-05 0.122631)
(0.000354595 0.000414366 0.355846)
(0.000309484 0.00051734 0.372495)
(0.000239651 0.000607162 0.385918)
(0.000154682 0.00067352 0.39533)
(5.33346e-05 0.000709575 0.400179)
(-5.33774e-05 0.000709573 0.400179)
(-0.000154724 0.000673512 0.39533)
(-0.00023969 0.000607149 0.385918)
(-0.00030952 0.000517322 0.372495)
(-0.000354626 0.000414345 0.355846)
(0.00106034 0.00123381 0.573681)
(0.000935113 0.00152623 0.599264)
(0.000731908 0.00178635 0.619823)
(0.000471148 0.00198061 0.634214)
(0.000162562 0.00208577 0.641619)
(-0.000162636 0.00208576 0.641619)
(-0.000471221 0.0019806 0.634214)
(-0.000731976 0.00178633 0.619822)
(-0.000935175 0.00152621 0.599263)
(-0.00106039 0.00123378 0.573681)
(0.00208022 0.00241419 0.775711)
(0.00183661 0.00296005 0.80858)
(0.00144015 0.00344788 0.834874)
(0.000925172 0.0038123 0.853241)
(0.000319057 0.00400901 0.86268)
(-0.000319164 0.004009 0.86268)
(-0.000925276 0.00381228 0.853241)
(-0.00144025 0.00344785 0.834874)
(-0.0018367 0.00296001 0.808579)
(-0.0020803 0.00241415 0.77571)
(0.00329503 0.00381255 0.961591)
(0.00290156 0.00462776 1.0001)
(0.00227175 0.00535515 1.03074)
(0.00145559 0.00589667 1.05209)
(0.00050142 0.006188 1.06304)
(-0.000501561 0.00618799 1.06304)
(-0.00145573 0.00589666 1.05208)
(-0.00227188 0.00535512 1.03074)
(-0.00290168 0.00462773 1.0001)
(-0.00329513 0.00381251 0.961591)
(0.00456951 0.00526826 1.13106)
(0.00400429 0.00631992 1.1736)
(0.00312426 0.00725279 1.20722)
(0.00199519 0.00794347 1.23058)
(0.000686214 0.00831352 1.24255)
(-0.000686389 0.00831351 1.24255)
(-0.00199536 0.00794346 1.23058)
(-0.00312442 0.00725277 1.20722)
(-0.00400444 0.00631988 1.1736)
(-0.00456964 0.00526822 1.13106)
(0.00576736 0.00662103 1.28392)
(0.00502078 0.00783344 1.32893)
(0.00389832 0.00889865 1.36426)
(0.00247953 0.00968164 1.38873)
(0.000851099 0.0100991 1.40124)
(-0.000851306 0.0100991 1.40124)
(-0.00247973 0.00968163 1.38873)
(-0.0038985 0.00889862 1.36426)
(-0.00502095 0.00783341 1.32893)
(-0.0057675 0.00662099 1.28392)
(0.00676425 0.00772416 1.41996)
(0.00584199 0.00899037 1.46603)
(0.00450865 0.0100878 1.50193)
(0.00285411 0.010887 1.52668)
(0.000977299 0.0113104 1.5393)
(-0.000977535 0.0113104 1.5393)
(-0.00285434 0.010887 1.52668)
(-0.00450887 0.0100878 1.50193)
(-0.00584219 0.00899034 1.46602)
(-0.00676442 0.00772413 1.41996)
(0.00747032 0.00846689 1.53883)
(0.00639121 0.00966684 1.5849)
(0.00489476 0.0106787 1.62045)
(0.00307994 0.0114066 1.64476)
(0.00105137 0.011789 1.65709)
(-0.00105163 0.011789 1.65709)
(-0.00308019 0.0114066 1.64476)
(-0.00489499 0.0106787 1.62044)
(-0.00639142 0.00966682 1.5849)
(-0.0074705 0.00846687 1.53883)
(0.00784019 0.0088813 1.63993)
(0.00661849 0.00979751 1.6861)
(0.00501001 0.0105819 1.72039)
(0.00312748 0.0111357 1.74353)
(0.00106331 0.0114233 1.75516)
(-0.00106359 0.0114233 1.75516)
(-0.00312775 0.0111357 1.74352)
(-0.00501026 0.0105819 1.72039)
(-0.00661872 0.00979751 1.6861)
(-0.00784039 0.00888129 1.63993)
(7.51613e-06 1.20381e-05 0.122247)
(3.02648e-06 1.57162e-05 0.128303)
(4.96304e-07 1.67791e-05 0.133186)
(5.42812e-08 1.67704e-05 0.136615)
(-6.58756e-08 1.66605e-05 0.138382)
(5.60332e-08 1.66597e-05 0.138382)
(-6.3834e-08 1.67681e-05 0.136615)
(-5.05282e-07 1.67756e-05 0.133186)
(-3.03496e-06 1.57114e-05 0.128303)
(-7.52308e-06 1.20322e-05 0.122247)
(0.00013477 0.000163969 0.354586)
(0.000111487 0.000205078 0.371159)
(8.34284e-05 0.00023735 0.38451)
(5.28835e-05 0.000260027 0.393869)
(1.80696e-05 0.000272075 0.39869)
(-1.81011e-05 0.000272073 0.39869)
(-5.2914e-05 0.000260021 0.393869)
(-8.34571e-05 0.00023734 0.38451)
(-0.000111513 0.000205065 0.371159)
(-0.000134792 0.000163953 0.354586)
(0.000406026 0.000480737 0.571654)
(0.000350328 0.000596564 0.59714)
(0.000270606 0.000695132 0.617609)
(0.000173008 0.000767474 0.631936)
(5.94965e-05 0.000806333 0.639308)
(-5.95511e-05 0.00080633 0.639308)
(-0.000173061 0.000767464 0.631936)
(-0.000270656 0.000695117 0.617609)
(-0.000350374 0.000596543 0.59714)
(-0.000406065 0.000480713 0.571654)
(0.000808832 0.00094756 0.773211)
(0.000706564 0.0011669 0.806013)
(0.00055076 0.00135849 0.832246)
(0.000352837 0.0015006 0.850572)
(0.000121525 0.00157711 0.85999)
(-0.000121604 0.00157711 0.85999)
(-0.000352913 0.00150059 0.850571)
(-0.000550832 0.00135847 0.832246)
(-0.00070663 0.00116688 0.806012)
(-0.000808889 0.000947531 0.77321)
(0.00130399 0.00151758 0.959031)
(0.00114241 0.00185174 0.997563)
(0.000892333 0.00214612 1.02822)
(0.000571344 0.00236478 1.04958)
(0.000196762 0.00248236 1.06055)
(-0.000196866 0.00248236 1.06055)
(-0.000571445 0.00236476 1.04958)
(-0.000892428 0.0021461 1.02822)
(-0.0011425 0.00185171 0.997563)
(-0.00130407 0.00151754 0.959031)
(0.00184063 0.0021305 1.12891)
(0.00160977 0.00257078 1.17161)
(0.0012556 0.00295849 1.20537)
(0.000802232 0.00324561 1.22884)
(0.000275998 0.00339956 1.24086)
(-0.000276127 0.00339956 1.24086)
(-0.000802357 0.00324559 1.22884)
(-0.00125572 0.00295847 1.20537)
(-0.00160988 0.00257075 1.17161)
(-0.00184072 0.00213047 1.12891)
(0.00236219 0.00271982 1.28264)
(0.00205637 0.00323805 1.32798)
(0.00159814 0.00369157 1.3636)
(0.00101773 0.00402545 1.38829)
(0.000349559 0.00420371 1.40091)
(-0.000349711 0.0042037 1.40091)
(-0.00101788 0.00402543 1.38829)
(-0.00159828 0.00369155 1.3636)
(-0.00205649 0.00323803 1.32798)
(-0.0023623 0.00271979 1.28264)
(0.002813 0.0032196 1.41996)
(0.00243247 0.00377187 1.46654)
(0.0018805 0.00424973 1.50289)
(0.00119235 0.00459844 1.52798)
(0.00040862 0.00478352 1.54077)
(-0.000408794 0.00478352 1.54077)
(-0.00119252 0.00459843 1.52798)
(-0.00188066 0.00424971 1.50288)
(-0.00243261 0.00377185 1.46654)
(-0.00281312 0.00321957 1.41995)
(0.0031492 0.00357552 1.5404)
(0.00269971 0.00410956 1.58717)
(0.002072 0.00455997 1.62331)
(0.00130615 0.00488461 1.64807)
(0.000446268 0.00505544 1.66063)
(-0.000446459 0.00505544 1.66063)
(-0.00130633 0.0048846 1.64807)
(-0.00207218 0.00455996 1.62331)
(-0.00269987 0.00410954 1.58717)
(-0.00314934 0.0035755 1.54039)
(0.0033449 0.00379465 1.64322)
(0.00282991 0.00421349 1.69029)
(0.00214725 0.00457046 1.72531)
(0.00134292 0.004823 1.74896)
(0.000456989 0.00495428 1.76086)
(-0.000457192 0.00495428 1.76086)
(-0.00134312 0.00482299 1.74895)
(-0.00214743 0.00457045 1.7253)
(-0.00283008 0.00421348 1.69029)
(-0.00334505 0.00379464 1.64322)
(-5.42688e-07 5.14215e-08 0.122077)
(-1.54456e-06 5.01907e-07 0.128125)
(-1.71112e-06 3.07238e-07 0.133)
(-1.11689e-06 -1.85285e-08 0.136423)
(-4.04801e-07 -2.03963e-07 0.138188)
(3.978e-07 -2.04498e-07 0.138188)
(1.11012e-06 -2.01043e-08 0.136423)
(1.70477e-06 3.04719e-07 0.133)
(1.53858e-06 4.98461e-07 0.128125)
(5.37843e-07 4.73247e-08 0.122077)
(3.71469e-05 4.47604e-05 0.354039)
(3.04249e-05 5.69436e-05 0.370584)
(2.27257e-05 6.65345e-05 0.38391)
(1.44991e-05 7.34142e-05 0.393252)
(4.96011e-06 7.71197e-05 0.398063)
(-4.98247e-06 7.71182e-05 0.398063)
(-1.45208e-05 7.34098e-05 0.393252)
(-2.27461e-05 6.65276e-05 0.383909)
(-3.04439e-05 5.69342e-05 0.370584)
(-3.71625e-05 4.4749e-05 0.354038)
(0.000128456 0.000150875 0.57076)
(0.000111126 0.000189333 0.596207)
(8.62433e-05 0.000222369 0.616642)
(5.54108e-05 0.000246998 0.630945)
(1.90925e-05 0.00026034 0.638306)
(-1.91314e-05 0.000260338 0.638305)
(-5.54485e-05 0.000246991 0.630945)
(-8.62787e-05 0.000222358 0.616642)
(-0.000111159 0.000189318 0.596207)
(-0.000128483 0.000150858 0.57076)
(0.000272973 0.000317659 0.77207)
(0.000239665 0.000394854 0.804839)
(0.000187861 0.000462909 0.831045)
(0.000120898 0.000514055 0.849354)
(4.17235e-05 0.000541782 0.858764)
(-4.17796e-05 0.000541779 0.858764)
(-0.000120952 0.000514047 0.849354)
(-0.000187912 0.000462896 0.831045)
(-0.000239713 0.000394836 0.804839)
(-0.000273013 0.000317638 0.772069)
(0.000458759 0.000530726 0.957798)
(0.000404355 0.000653082 0.996327)
(0.000317717 0.000761862 1.02698)
(0.000204341 0.000843621 1.04835)
(7.05173e-05 0.000887872 1.05932)
(-7.0591e-05 0.000887869 1.05932)
(-0.000204413 0.000843612 1.04835)
(-0.000317784 0.000761847 1.02698)
(-0.000404417 0.000653062 0.996326)
(-0.000458812 0.000530702 0.957797)
(0.000667676 0.000768542 1.12777)
(0.000587844 0.000934742 1.17052)
(0.000461333 0.00108246 1.20432)
(0.000296084 0.00119307 1.22783)
(0.000102079 0.00125274 1.23988)
(-0.00010217 0.00125274 1.23988)
(-0.000296173 0.00119306 1.22783)
(-0.000461417 0.00108245 1.20432)
(-0.00058792 0.000934722 1.17051)
(-0.000667743 0.000768518 1.12777)
(0.000877808 0.00100531 1.28179)
(0.000769599 0.00120591 1.32725)
(0.000601852 0.00138312 1.36297)
(0.000384995 0.00151495 1.38775)
(0.000132514 0.00158575 1.40042)
(-0.000132622 0.00158574 1.40042)
(-0.0003851 0.00151494 1.38775)
(-0.000601951 0.00138311 1.36297)
(-0.000769689 0.00120589 1.32725)
(-0.000877887 0.00100528 1.28179)
(0.00106628 0.00121397 1.41957)
(0.000928841 0.00143245 1.46635)
(0.000722532 0.0016233 1.50287)
(0.000460139 0.0017639 1.5281)
(0.000158014 0.00183892 1.54097)
(-0.000158137 0.00183892 1.54097)
(-0.000460259 0.0017639 1.5281)
(-0.000722646 0.00162329 1.50287)
(-0.000928944 0.00143243 1.46635)
(-0.00106637 0.00121395 1.41957)
(0.00121411 0.00137126 1.54061)
(0.00104839 0.00158691 1.58767)
(0.000809369 0.00177033 1.62406)
(0.000512297 0.00190354 1.64901)
(0.000175367 0.00197394 1.66166)
(-0.000175503 0.00197394 1.66166)
(-0.000512429 0.00190353 1.64901)
(-0.000809494 0.00177032 1.62406)
(-0.0010485 0.0015869 1.58767)
(-0.00121421 0.00137124 1.54061)
(0.00130865 0.00147869 1.64413)
(0.00111409 0.0016525 1.69157)
(0.000849828 0.00180019 1.7269)
(0.00053341 0.00190518 1.75077)
(0.000181815 0.00195993 1.76279)
(-0.00018196 0.00195993 1.76279)
(-0.000533551 0.00190518 1.75077)
(-0.000849963 0.00180018 1.7269)
(-0.00111421 0.00165249 1.69157)
(-0.00130876 0.00147868 1.64413)
(-2.07047e-08 7.22617e-07 0.122052)
(-8.56756e-07 1.08904e-06 0.128097)
(-1.05294e-06 9.14744e-07 0.132969)
(-7.65509e-07 6.23385e-07 0.13639)
(-2.85094e-07 4.37305e-07 0.138153)
(2.80288e-07 4.36924e-07 0.138153)
(7.60853e-07 6.22319e-07 0.13639)
(1.04859e-06 9.12995e-07 0.132969)
(8.52784e-07 1.08672e-06 0.128097)
(1.74254e-08 7.19918e-07 0.122052)
(1.02358e-05 1.35773e-05 0.353915)
(7.08951e-06 1.75316e-05 0.37045)
(4.63865e-06 1.99943e-05 0.383764)
(2.74634e-06 2.15266e-05 0.393098)
(8.98281e-07 2.22963e-05 0.397905)
(-9.13661e-07 2.22952e-05 0.397905)
(-2.76127e-06 2.15236e-05 0.393098)
(-4.65262e-06 1.99894e-05 0.383764)
(-7.10226e-06 1.75252e-05 0.37045)
(-1.02464e-05 1.35697e-05 0.353915)
(3.85208e-05 4.6781e-05 0.570525)