/*--------------------------------*- C++ -*----------------------------------*\
| =========                 |                                                 |
| \\      /  F ield         | OpenFOAM: The Open Source CFD Toolbox           |
|  \\    /   O peration     | Version:  2106                                  |
|   \\  /    A nd           | Website:  www.openfoam.com                      |
|    \\/     M anipulation  |                                                 |
\*---------------------------------------------------------------------------*/
FoamFile
{
    version     2.0;
    format      ascii;
    arch        "LSB;label=32;scalar=64";
    class       surfaceScalarField;
    location    "0.59";
    object      phi;
}
// * * * * * * * * * * * * * * * * * * * * * * * * * * * * * * * * * * * * * //

dimensions      [0 3 -1 0 0 0 0];

oriented        oriented;

internalField   nonuniform List<scalar> 
29100
(
0.00118086
0.150392
0.0809149
-2.63355e-10
0.0014531
0.155269
0.0889205
0.00124698
0.158688
0.095608
0.000710164
0.160966
0.100395
-2.57361e-09
0.162109
0.102888
-0.000710169
0.162109
0.102888
-0.00124699
0.160966
0.100395
-0.00145311
0.158688
0.095608
-0.00118086
0.155269
0.0889205
0.150392
0.0809149
-3.7301e-09
0.00236429
0.208237
0.155448
-5.13964e-10
0.0032841
0.212821
0.168971
0.00292916
0.215892
0.180028
0.00169449
0.217808
0.187848
-7.23823e-09
0.218748
0.191889
-0.0016945
0.218748
0.191889
-0.00292917
0.217808
0.187848
-0.00328412
0.215892
0.180028
-0.0023643
0.212821
0.168971
0.208237
0.155448
-9.82268e-09
0.0030161
0.219374
0.184672
-6.9339e-10
0.00426603
0.222299
0.199695
0.00382942
0.224205
0.211788
0.00221795
0.225245
0.220264
-1.16243e-08
0.225727
0.22462
-0.00221798
0.225727
0.22462
-0.00382944
0.225245
0.220264
-0.00426605
0.224205
0.211788
-0.00301611
0.222299
0.199695
0.219374
0.184672
-1.52573e-08
0.00344478
0.20615
0.191773
-8.81549e-10
0.00480605
0.207408
0.206934
0.00430513
0.208173
0.218984
0.00248904
0.208412
0.22737
-1.59643e-08
0.208482
0.231662
-0.00248907
0.208482
0.231662
-0.00430516
0.208412
0.22737
-0.00480607
0.208173
0.218984
-0.0034448
0.207408
0.206934
0.20615
0.191773
-2.01641e-08
0.00367397
0.181233
0.186407
-1.06715e-09
0.00505654
0.181207
0.201202
0.00451725
0.181106
0.212844
0.00260826
0.180775
0.220899
-2.04125e-08
0.180559
0.225008
-0.0026083
0.180559
0.225008
-0.00451728
0.180775
0.220899
-0.00505657
0.181106
0.212844
-0.003674
0.181207
0.201202
0.181233
0.186407
-2.4731e-08
0.00375874
0.151901
0.173905
-1.27195e-09
0.00512223
0.151024
0.188184
0.00456644
0.150358
0.199329
0.00263518
0.149693
0.206999
-2.50892e-08
0.149316
0.210901
-0.00263523
0.149316
0.210901
-0.00456649
0.149693
0.206999
-0.00512227
0.150358
0.199329
-0.00375877
0.151024
0.188184
0.151901
0.173905
-2.90386e-08
0.00376658
0.122235
0.1574
-1.55592e-09
0.00509692
0.120877
0.171162
0.004537
0.119898
0.181832
0.00261802
0.119089
0.189141
-3.00338e-08
0.118653
0.192851
-0.00261808
0.118653
0.192851
-0.00453706
0.119089
0.189141
-0.00509697
0.119898
0.181832
-0.00376662
0.120877
0.171162
0.122235
0.1574
-3.31427e-08
0.00373205
0.0944504
0.138723
-1.90158e-09
0.00504282
0.0928695
0.152022
0.00448869
0.0917734
0.162277
0.00259132
0.0909671
0.16927
-3.51627e-08
0.09055
0.172812
-0.00259139
0.09055
0.172812
-0.00448875
0.0909671
0.16927
-0.00504288
0.0917734
0.162277
-0.00373209
0.0928695
0.152022
0.0944504
0.138723
-3.70211e-08
0.00370018
0.0696616
0.118927
-2.24906e-09
0.00502439
0.068023
0.131828
0.00447371
0.0669818
0.141728
0.00258187
0.0662927
0.148449
-4.02005e-08
0.0659516
0.151845
-0.00258195
0.0659516
0.151845
-0.00447378
0.0662927
0.148449
-0.00502446
0.0669818
0.141728
-0.00370023
0.068023
0.131828
0.0696616
0.118927
-4.06236e-08
0.00392018
0.098616
-2.44337e-09
0.0481331
0.00521377
0.111179
0.046837
0.0045859
0.120769
0.0460137
0.0026267
0.127252
0.0455156
-4.4598e-08
0.13052
0.0452713
-0.00262678
0.13052
0.0452713
-0.00458598
0.127252
0.0455156
-0.00521383
0.120769
0.0460137
-0.00392023
0.111179
0.046837
0.098616
-4.31531e-08
0.0481331
-0.000240329
0.0365241
0.0446312
-4.00584e-10
-0.000242372
0.0396981
0.0492245
-0.000170349
0.0423802
0.0531558
-8.48286e-05
0.0442983
0.056011
-4.32464e-09
0.0452905
0.0575123
8.48202e-05
0.0452905
0.0575123
0.000170341
0.0442983
0.056011
0.000242364
0.0423802
0.0531558
0.000240322
0.0396981
0.0492245
0.0365241
0.0446312
-6.32568e-09
6.48924e-05
0.0806843
0.111223
-7.59688e-10
0.000253233
0.0864738
0.122007
0.000302525
0.0912884
0.131071
0.000202621
0.0946619
0.137584
-1.3228e-08
0.0963948
0.140987
-0.000202647
0.0963948
0.140987
-0.000302549
0.0946619
0.137584
-0.000253256
0.0912884
0.131071
-6.49125e-05
0.0864738
0.122007
0.0806843
0.111223
-1.79305e-08
0.000614657
0.11218
0.152562
-1.0913e-09
0.0010329
0.118889
0.166862
0.00101058
0.124395
0.178704
0.0006176
0.128178
0.187141
-2.20781e-08
0.130106
0.191526
-0.000617643
0.130106
0.191526
-0.00101062
0.128178
0.187141
-0.00103294
0.124395
0.178704
-0.000614689
0.118889
0.166862
0.11218
0.152562
-2.86644e-08
0.00123379
0.128675
0.174045
-1.42068e-09
0.00187689
0.135066
0.190113
0.00176602
0.140244
0.203245
0.00105473
0.143729
0.21253
-3.09778e-08
0.145488
0.217335
-0.00105479
0.145488
0.217335
-0.00176608
0.143729
0.21253
-0.00187694
0.140244
0.203245
-0.00123384
0.135066
0.190113
0.128675
0.174045
-3.8494e-08
0.0018392
0.131902
0.18134
-1.76119e-09
0.00267888
0.137287
0.198141
0.00247576
0.141582
0.21171
0.00146247
0.144403
0.221238
-4.00068e-08
0.14581
0.226148
-0.00146255
0.14581
0.226148
-0.00247584
0.144403
0.221238
-0.00267895
0.141582
0.21171
-0.00183926
0.137287
0.198141
0.131902
0.18134
-4.74983e-08
0.0023869
0.124894
0.178527
-2.16392e-09
0.00339228
0.129001
0.195465
0.00310265
0.1322
0.209
0.00182142
0.134241
0.218442
-4.92096e-08
0.135243
0.223289
-0.00182151
0.135243
0.223289
-0.00310274
0.134241
0.218442
-0.00339236
0.1322
0.209
-0.00238697
0.129001
0.195465
0.124894
0.178527
-5.56731e-08
0.00285377
0.110873
0.168568
-2.78483e-09
0.0040007
0.113697
0.185319
0.00363815
0.115816
0.198579
0.00212857
0.117119
0.207772
-5.85081e-08
0.117748
0.212475
-0.00212868
0.117748
0.212475
-0.00363826
0.11712
0.207772
-0.00400079
0.115816
0.198579
-0.00285385
0.113697
0.185319
0.110873
0.168568
-6.29667e-08
0.00323401
0.0927542
0.153608
-3.66442e-09
0.0045138
0.0944237
0.170015
0.00409601
0.095616
0.182895
0.00239274
0.0963207
0.191772
-6.76252e-08
0.0966542
0.196298
-0.00239287
0.0966542
0.196298
-0.00409613
0.0963207
0.191772
-0.0045139
0.095616
0.182895
-0.0032341
0.0944237
0.170015
0.0927542
0.153608
-6.929e-08
0.00356342
0.0729341
0.135184
-4.88782e-09
0.00498079
0.0736426
0.151192
0.004514
0.0741504
0.16366
0.00263274
0.0744468
0.172204
-7.59154e-08
0.0745869
0.176546
-0.00263289
0.0745869
0.176545
-0.00451413
0.0744468
0.172204
-0.00498091
0.0741504
0.16366
-0.00356351
0.0736426
0.151192
0.0729341
0.135184
-7.48182e-08
0.00398918
0.11439
-6.12243e-09
0.0531709
0.00552604
0.130008
0.0532765
0.00496898
0.142065
0.0534105
0.00288201
0.150279
0.0535064
-8.20519e-08
0.154438
0.053551
-0.00288217
0.154438
0.053551
-0.00496912
0.150279
0.0535064
-0.00552616
0.142065
0.0534105
-0.00398928
0.130008
0.0532765
0.11439
-7.82019e-08
0.0531709
3.93042e-05
0.00999155
0.0346003
-4.61141e-10
3.5274e-05
0.011025
0.0382035
2.97169e-05
0.011902
0.0412593
1.64668e-05
0.0125532
0.0434711
-4.65846e-09
0.0128962
0.0446326
-1.6476e-05
0.0128962
0.0446326
-2.97256e-05
0.0125532
0.0434711
-3.52822e-05
0.011902
0.0412593
-3.93119e-05
0.011025
0.0382035
0.00999155
0.0346003
-7.10911e-09
0.00028139
0.0302953
0.0906375
-9.09998e-10
0.000382137
0.0330042
0.099927
0.000341529
0.0352711
0.107742
0.000199217
0.036906
0.113374
-1.47412e-08
0.0377601
0.116322
-0.000199246
0.0377601
0.116322
-0.000341556
0.036906
0.113374
-0.000382162
0.0352711
0.107742
-0.000281413
0.0330042
0.099927
0.0302954
0.0906374
-2.05456e-08
0.000600904
0.0511959
0.13106
-1.37456e-09
0.000852638
0.0551968
0.144418
0.000772452
0.0585007
0.155554
0.000452752
0.0608306
0.163536
-2.51246e-08
0.0620375
0.167701
-0.000452801
0.0620375
0.167701
-0.000772498
0.0608306
0.163536
-0.00085268
0.0585007
0.155554
-0.000600941
0.0551968
0.144418
0.0511959
0.13106
-3.32026e-08
0.000968115
0.0669976
0.157275
-1.83071e-09
0.00138935
0.0715741
0.173315
0.00126895
0.0753074
0.186559
0.000745221
0.077889
0.195996
-3.57151e-08
0.0792142
0.200904
-0.000745291
0.0792142
0.200904
-0.00126902
0.077889
0.195996
-0.00138941
0.0753075
0.186559
-0.000968166
0.0715741
0.173315
0.0669976
0.157275
-4.48708e-08
0.00135792
0.0757058
0.171274
-2.3259e-09
0.00194501
0.0801988
0.18893
0.0017809
0.0838155
0.203366
0.00104614
0.0862686
0.213593
-4.64595e-08
0.0875153
0.218893
-0.00104623
0.0875153
0.218893
-0.00178099
0.0862686
0.213593
-0.00194509
0.0838155
0.203366
-0.00135798
0.0801988
0.188929
0.0757058
0.171273
-5.54899e-08
0.00174991
0.0773385
0.175144
-2.92475e-09
0.00248954
0.0812808
0.193643
0.00227848
0.0844001
0.208627
0.00133769
0.0864732
0.219178
-5.72713e-08
0.0875152
0.224627
-0.0013378
0.0875152
0.224627
-0.00227858
0.0864732
0.219178
-0.00248963
0.0844001
0.208627
-0.00174999
0.0812809
0.193643
0.0773385
0.175144
-6.494e-08
0.00212081
0.0729688
0.170817
-3.81473e-09
0.00299871
0.0760982
0.189623
0.00274174
0.0785171
0.204719
0.00160875
0.0800912
0.215287
-6.79334e-08
0.0808735
0.220726
-0.00160888
0.0808735
0.220726
-0.00274187
0.0800913
0.215287
-0.00299882
0.0785171
0.204718
-0.0021209
0.0760983
0.189623
0.0729688
0.170817
-7.30349e-08
0.00245452
0.0641492
0.159973
-5.03559e-09
0.0034625
0.0663689
0.178736
0.00316413
0.0680416
0.193669
0.0018557
0.0691105
0.204061
-7.801e-08
0.0696369
0.209391
-0.00185585
0.0696369
0.209391
-0.00316427
0.0691105
0.204061
-0.00346262
0.0680416
0.193668
-0.00245462
0.0663689
0.178736
0.0641492
0.159973
-7.9542e-08
0.00276356
0.0525411
0.144029
-6.59256e-09
0.0038968
0.053886
0.162542
0.00355536
0.0548934
0.17715
0.00208222
0.0555348
0.187253
-8.6699e-08
0.0558502
0.192414
-0.00208239
0.0558502
0.192414
-0.00355551
0.0555348
0.187253
-0.00389693
0.0548934
0.17715
-0.00276366
0.053886
0.162542
0.0525411
0.144029
-8.44812e-08
0.00310616
0.124155
-7.9794e-09
0.0396704
0.00434543
0.142334
0.0403204
0.00394216
0.156521
0.0408412
0.00229939
0.166266
0.041191
-9.25545e-08
0.171224
0.0413638
-0.00229957
0.171224
0.0413638
-0.00394233
0.166266
0.041191
-0.00434557
0.156521
0.0408412
-0.00310626
0.142334
0.0403204
0.124154
-8.62625e-08
0.0396704
-3.16185e-05
0.0040782
0.0305538
-4.6094e-10
-4.51546e-05
0.00449085
0.0337262
-3.64055e-05
0.00484102
0.0364096
-2.00707e-05
0.00510139
0.0383533
-4.27209e-09
0.00523778
0.0393747
2.00623e-05
0.00523778
0.0393747
3.63974e-05
0.00510139
0.0383533
4.51467e-05
0.00484103
0.0364096
3.16112e-05
0.00449085
0.0337262
0.0040782
0.0305538
-6.77388e-09
1.00895e-05
0.0126625
0.082043
-9.00839e-10
1.74068e-05
0.0138752
0.0905354
2.18055e-05
0.0149028
0.0976762
1.55507e-05
0.0156518
0.10283
-1.38132e-08
0.0160446
0.105531
-1.55779e-05
0.0160446
0.105531
-2.18315e-05
0.0156518
0.10283
-1.74302e-05
0.0149028
0.0976762
-1.01099e-05
0.0138752
0.0905353
0.0126625
0.082043
-1.96892e-08
0.000123599
0.0225389
0.12106
-1.43466e-09
0.000187407
0.0245525
0.133677
0.000179953
0.0262476
0.144217
0.000109625
0.0274644
0.151793
-2.38591e-08
0.0280997
0.155756
-0.000109672
0.0280997
0.155756
-0.000179997
0.0274644
0.151793
-0.000187448
0.0262476
0.144217
-0.000123635
0.0245526
0.133677
0.0225389
0.12106
-3.22865e-08
0.000294294
0.0312479
0.148272
-1.99141e-09
0.000438781
0.0338124
0.16391
0.00041362
0.0359503
0.176881
0.000247982
0.0374623
0.186164
-3.42282e-08
0.0382468
0.191005
-0.000248049
0.0382468
0.191005
-0.000413683
0.0374623
0.186164
-0.000438839
0.0359503
0.176881
-0.000294344
0.0338124
0.16391
0.0312479
0.148272
-4.3828e-08
0.000506518
0.0372678
0.164747
-2.62385e-09
0.000744487
0.0400418
0.182462
0.000696355
0.0423247
0.19704
0.000414795
0.0439148
0.207422
-4.47762e-08
0.0447336
0.212821
-0.000414882
0.0447336
0.212821
-0.000696437
0.0439148
0.207422
-0.000744561
0.0423247
0.19704
-0.000506581
0.0400418
0.182462
0.0372679
0.164747
-5.42354e-08
0.000744212
0.039947
0.171721
-3.38951e-09
0.00108044
0.0426091
0.19074
0.00100515
0.0447628
0.206264
0.000596431
0.0462386
0.217263
-5.5335e-08
0.046992
0.222965
-0.000596539
0.046992
0.222965
-0.00100525
0.0462386
0.217263
-0.00108053
0.0447628
0.206264
-0.000744287
0.0426091
0.19074
0.039947
0.171721
-6.33687e-08
0.000990076
0.0393044
0.170469
-4.46341e-09
0.00142491
0.0416095
0.190188
0.0013207
0.043434
0.206152
0.000781709
0.0446631
0.217401
-6.56188e-08
0.0452849
0.223215
-0.000781837
0.0452849
0.223215
-0.00132082
0.0446631
0.217401
-0.00142501
0.043434
0.206151
-0.00099016
0.0416096
0.190188
0.0393044
0.170469
-7.10084e-08
0.00123112
0.0358187
0.162227
-5.87283e-09
0.00176453
0.0376156
0.182197
0.00163127
0.0390046
0.198231
0.000963631
0.0399259
0.209466
-7.51488e-08
0.0403881
0.215251
-0.000963777
0.0403881
0.215251
-0.00163141
0.0399259
0.209466
-0.00176465
0.0390047
0.198231
-0.00123121
0.0376156
0.182197
0.0358187
0.162227
-7.69115e-08
0.0014715
0.0302331
0.148143
-7.60548e-09
0.00210173
0.0314701
0.168057
0.00193546
0.0324114
0.183909
0.00114008
0.0330299
0.194945
-8.31106e-08
0.0333388
0.200604
-0.00114024
0.0333388
0.200604
-0.0019356
0.0330299
0.194945
-0.00210185
0.0324114
0.183909
-0.0014716
0.0314702
0.168057
0.0302331
0.148143
-8.1077e-08
0.00172594
0.129259
-9.16388e-09
0.0234026
0.00244702
0.148966
0.024117
0.00224054
0.164459
0.0246794
0.00131418
0.175164
0.025058
-8.80779e-08
0.180629
0.0252471
-0.00131435
0.180629
0.0252471
-0.0022407
0.175164
0.025058
-0.00244715
0.164459
0.0246794
-0.00172604
0.148966
0.024117
0.129259
-8.1888e-08
0.0234026
2.11562e-06
0.00133134
0.0292203
-4.52229e-10
-2.65158e-07
0.00147833
0.0322502
1.25729e-07
0.00160619
0.034803
1.38583e-07
0.0017038
0.0366495
-3.59997e-09
0.00175586
0.037619
-1.45723e-07
0.00175586
0.037619
-1.32637e-07
0.0017038
0.0366495
2.58547e-07
0.00160619
0.034803
-2.12173e-06
0.00147834
0.0322502
0.00133134
0.0292203
-5.99924e-09
3.08149e-05
0.00477768
0.0785659
-9.80204e-10
3.9812e-05
0.00527329
0.0867314
3.66508e-05
0.00569915
0.0935864
2.17319e-05
0.00601552
0.0985329
-1.18064e-08
0.00618315
0.101126
-2.17553e-05
0.00618315
0.101126
-3.66732e-05
0.00601552
0.0985329
-3.98329e-05
0.00569915
0.0935864
-3.0834e-05
0.0052733
0.0867314
0.00477769
0.0785659
-1.76556e-08
8.59357e-05
0.00921817
0.116534
-1.5396e-09
0.000121766
0.0101181
0.128796
0.000112369
0.0108844
0.139041
6.66853e-05
0.0114435
0.146411
-2.05639e-08
0.0117382
0.150267
-6.67258e-05
0.0117382
0.150267
-0.000112408
0.0114435
0.146411
-0.000121801
0.0108845
0.139041
-8.59673e-05
0.0101181
0.128796
0.00921818
0.116534
-2.87344e-08
0.000167232
0.0135457
0.143777
-2.11562e-09
0.000242779
0.0147798
0.159173
0.00022545
0.0158208
0.171962
0.000133873
0.016569
0.18113
-2.96692e-08
0.0169608
0.185916
-0.000133932
0.0169608
0.185916
-0.000225505
0.016569
0.18113
-0.000242829
0.0158208
0.171962
-0.000167276
0.0147798
0.159173
0.0135457
0.143777
-3.89638e-08
0.000271743
0.0169285
0.161093
-2.7689e-09
0.000396022
0.0183524
0.178765
0.000368524
0.0195396
0.193349
0.000218785
0.0203805
0.20376
-3.89565e-08
0.0208177
0.209183
-0.000218861
0.0208177
0.209183
-0.000368595
0.0203805
0.20376
-0.000396086
0.0195396
0.193349
-0.000271798
0.0183524
0.178765
0.0169285
0.161093
-4.81994e-08
0.000394088
0.0188693
0.169386
-3.55687e-09
0.000572498
0.0203165
0.188597
0.000532567
0.0215052
0.204338
0.000315931
0.0223347
0.215525
-4.8239e-08
0.0227626
0.221337
-0.000316026
0.0227626
0.221337
-0.000532655
0.0223347
0.215525
-0.000572575
0.0215052
0.204338
-0.000394154
0.0203165
0.188597
0.0188693
0.169386
-5.62521e-08
0.000526794
0.0191938
0.169618
-4.63897e-09
0.000761969
0.0205144
0.189755
0.000708001
0.0215791
0.206132
0.000419589
0.0223106
0.217714
-5.72247e-08
0.0226847
0.223712
-0.000419701
0.0226848
0.223712
-0.000708104
0.0223106
0.217714
-0.000762059
0.0215791
0.206132
-0.000526869
0.0205145
0.189755
0.0191938
0.169618
-6.28947e-08
0.00066313
0.017997
0.162761
-6.03575e-09
0.000956346
0.0190809
0.183337
0.000887083
0.019937
0.199942
0.000524982
0.0205165
0.211622
-6.54619e-08
0.0208103
0.217651
-0.000525109
0.0208103
0.217651
-0.0008872
0.0205165
0.211622
-0.000956446
0.0199371
0.199942
-0.000663212
0.0190809
0.183337
0.017997
0.162761
-6.78971e-08
0.000803078
0.0155687
0.149768
-7.71229e-09
0.00115272
0.01636
0.170428
0.00106501
0.016973
0.186961
0.000628613
0.0173826
0.198515
-7.2225e-08
0.0175889
0.204454
-0.000628753
0.0175889
0.204454
-0.00106513
0.0173827
0.198515
-0.00115283
0.0169731
0.186961
-0.000803164
0.0163601
0.170428
0.0155687
0.149768
-7.1263e-08
0.000941458
0.131561
-9.18461e-09
0.0123255
0.00134346
0.152111
0.0128133
0.00123652
0.168343
0.0131966
0.000727678
0.179599
0.0134565
-7.62729e-08
0.185359
0.0135874
-0.000727825
0.185359
0.0135874
-0.00123665
0.179599
0.0134565
-0.00134357
0.168343
0.0131966
-0.000941545
0.152111
0.0128133
0.131561
-7.1597e-08
0.0123255
-5.5674e-06
0.000579267
0.0286466
-3.83148e-10
-8.30053e-06
0.000637244
0.0316157
-6.58392e-06
0.000686309
0.034115
-3.63142e-06
0.000723603
0.035923
-2.80766e-09
0.000743204
0.0368722
3.62552e-06
0.000743205
0.0368722
6.57838e-06
0.000723603
0.035923
8.29533e-06
0.00068631
0.034115
5.5622e-06
0.000637246
0.0316157
0.000579268
0.0286466
-4.99748e-09
-9.34873e-07
0.00201808
0.077128
-8.661e-10
-2.0207e-06
0.00222319
0.0851465
-7.4455e-07
0.00239798
0.0918735
1.0127e-07
0.00252794
0.0967277
-9.25606e-09
0.0025968
0.0992722
-1.18094e-07
0.0025968
0.0992722
7.26911e-07
0.00252794
0.0967277
2.00265e-06
0.00239799
0.0918735
9.19278e-07
0.0022232
0.0851465
0.00201808
0.077128
-1.4624e-08
1.7504e-05
0.00392506
0.114609
-1.41143e-09
2.58767e-05
0.00431649
0.126694
2.53765e-05
0.00465012
0.136789
1.56793e-05
0.00489493
0.144054
-1.65363e-08
0.00502431
0.147856
-1.57123e-05
0.00502431
0.147856
-2.54077e-05
0.00489493
0.144054
-2.59052e-05
0.00465013
0.136789
-1.75298e-05
0.0043165
0.126694
0.00392507
0.114609
-2.38132e-08
5.04e-05
0.00588219
0.141769
-1.98122e-09
7.50038e-05
0.00644569
0.157019
7.13857e-05
0.00692344
0.169692
4.30883e-05
0.00726973
0.178783
-2.40197e-08
0.00745189
0.183532
-4.31357e-05
0.0074519
0.183532
-7.14304e-05
0.00726973
0.178783
-7.50443e-05
0.00692345
0.169692
-5.04358e-05
0.0064457
0.157019
0.0058822
0.141769
-3.23259e-08
9.65284e-05
0.00751997
0.159358
-2.61659e-09
0.000142956
0.00820059
0.176964
0.000134973
0.00877224
0.191508
8.09009e-05
0.0091814
0.201903
-3.16221e-08
0.00939535
0.207321
-8.09629e-05
0.00939535
0.207321
-0.000135031
0.00918141
0.201903
-0.000143009
0.00877225
0.191508
-9.65735e-05
0.00820061
0.176964
0.00751999
0.159358
-4.00174e-08
0.000153757
0.00857476
0.168178
-3.36236e-09
0.000226133
0.00929683
0.187429
0.000212562
0.00989522
0.203229
0.000126953
0.0103178
0.214475
-3.92032e-08
0.0105372
0.220322
-0.00012703
0.0105372
0.220322
-0.000212633
0.0103178
0.214475
-0.000226196
0.00989524
0.203229
-0.00015381
0.00929684
0.187429
0.00857478
0.168178
-4.67173e-08
0.000218866
0.00891118
0.169063
-4.33408e-09
0.000319957
0.00959745
0.189353
0.000299802
0.0101565
0.205891
0.000178622
0.0105456
0.217607
-4.65102e-08
0.010746
0.223682
-0.000178712
0.010746
0.223682
-0.000299886
0.0105456
0.217607
-0.00032003
0.0101565
0.20589
-0.000218927
0.00959747
0.189353
0.0089112
0.169062
-5.2229e-08
0.000288841
0.0085197
0.162864
-5.54019e-09
0.000420506
0.00910609
0.183697
0.000392774
0.00957468
0.200552
0.000233442
0.00989602
0.212431
-5.31692e-08
0.0100601
0.21857
-0.000233546
0.0100601
0.21857
-0.000392869
0.00989603
0.212431
-0.000420588
0.00957469
0.200552
-0.000288908
0.00910611
0.183697
0.00851972
0.162863
-5.63574e-08
0.000363852
0.00749613
0.150428
-6.9504e-09
0.000526093
0.00794355
0.171428
0.000488685
0.00829374
0.188279
0.000289408
0.00853043
0.20008
-5.86029e-08
0.00865033
0.206153
-0.000289521
0.00865033
0.206153
-0.000488788
0.00853043
0.20008
-0.000526182
0.00829376
0.188279
-0.000363923
0.00794357
0.171428
0.00749614
0.150428
-5.90929e-08
0.00043917
0.132598
-8.17577e-09
0.00601929
0.000631233
0.153554
0.006309
0.000584093
0.170146
0.00653775
0.000344844
0.181675
0.00669381
-6.18507e-08
0.187581
0.00677275
-0.000344964
0.187581
0.00677276
-0.000584201
0.181675
0.00669382
-0.000631325
0.170146
0.00653775
-0.000439241
0.153553
0.00630901
0.132598
-5.93678e-08
0.0060193
-8.35517e-07
0.000187102
0.0284603
-2.98142e-10
-1.62701e-06
0.000207257
0.0314093
-1.18763e-06
0.000224807
0.0338897
-6.3636e-07
0.00023859
0.0356838
-2.18574e-09
0.000245945
0.0366256
6.31981e-07
0.000245945
0.0366256
1.18339e-06
0.00023859
0.0356838
1.62284e-06
0.000224808
0.0338897
8.31451e-07
0.000207258
0.0314093
0.000187103
0.0284603
-3.85212e-09
1.80183e-06
0.000731376
0.0765819
-6.84838e-10
1.89446e-06
0.000809924
0.0845438
2.05177e-06
0.000877984
0.0912201
1.34275e-06
0.000929495
0.0960375
-7.25283e-09
0.000956997
0.0985625
-1.35714e-06
0.000956997
0.0985625
-2.0656e-06
0.000929497
0.0960375
-1.90731e-06
0.000877986
0.0912201
-1.81352e-06
0.000809928
0.0845437
0.000731379
0.0765819
-1.13103e-08
9.80789e-06
0.00150474
0.113826
-1.15573e-09
1.37424e-05
0.00166314
0.125837
1.30378e-05
0.00179971
0.135868
7.89313e-06
0.00190125
0.143087
-1.27413e-08
0.00195528
0.146865
-7.91827e-06
0.00195528
0.146865
-1.30618e-05
0.00190126
0.143087
-1.37647e-05
0.00179972
0.135868
-9.82789e-06
0.00166314
0.125837
0.00150474
0.113826
-1.85638e-08
2.38317e-05
0.00234096
0.140909
-1.66243e-09
3.4691e-05
0.00257888
0.156093
3.26619e-05
0.00278267
0.168711
1.95873e-05
0.00293216
0.177765
-1.84901e-08
0.0030113
0.182495
-1.96237e-05
0.0030113
0.182495
-3.26963e-05
0.00293216
0.177765
-3.47225e-05
0.00278268
0.168711
-2.38594e-05
0.00257889
0.156093
0.00234097
0.140909
-2.53239e-08
4.39438e-05
0.00308108
0.158574
-2.22539e-09
6.45042e-05
0.00337912
0.176143
6.06453e-05
0.00363202
0.190662
3.626e-05
0.00381516
0.201044
-2.43631e-08
0.00391155
0.206457
-3.63077e-05
0.00391155
0.206457
-6.06902e-05
0.00381517
0.201044
-6.45447e-05
0.00363203
0.190662
-4.39789e-05
0.00337913
0.176143
0.00308109
0.158574
-3.14542e-08
6.95883e-05
0.0035994
0.16759
-2.86684e-09
0.000102119
0.003926
0.186849
9.58922e-05
0.00419963
0.202667
5.72362e-05
0.00439517
0.213933
-3.02172e-08
0.00449737
0.219793
-5.72953e-05
0.00449737
0.219793
-9.59473e-05
0.00439518
0.213933
-0.000102168
0.00419964
0.202667
-6.96301e-05
0.00392601
0.186849
0.00359942
0.16759
-3.68165e-08
9.95878e-05
0.00381919
0.168743
-3.66551e-09
0.000145764
0.00413888
0.189094
0.000136669
0.00440243
0.205697
8.14523e-05
0.0045881
0.21747
-3.58505e-08
0.00468437
0.223577
-8.15223e-05
0.00468437
0.223577
-0.000136734
0.00458811
0.21747
-0.000145821
0.00440244
0.205697
-9.96353e-05
0.0041389
0.189094
0.00381921
0.168743
-4.1261e-08
0.000132668
0.00371802
0.162832
-4.62938e-09
0.000193622
0.00399902
0.183776
0.000181088
0.00422636
0.200741
0.000107706
0.00438405
0.212709
-4.09782e-08
0.00446507
0.218897
-0.000107786
0.00446508
0.218897
-0.000181162
0.00438406
0.212709
-0.000193686
0.00422637
0.20074
-0.00013272
0.00399903
0.183776
0.00371803
0.162832
-4.46413e-08
0.000168576
0.00332394
0.150653
-5.72758e-09
0.000244294
0.00354482
0.171807
0.000227277
0.00371928
0.188804
0.000134734
0.00383826
0.200718
-4.51762e-08
0.00389882
0.206854
-0.000134821
0.00389882
0.206854
-0.000227357
0.00383826
0.200718
-0.000244363
0.00371929
0.188803
-0.000168631
0.00354483
0.171807
0.00332395
0.150653
-4.69449e-08
0.000202883
0.13301
-6.65135e-09
0.00270999
0.00029301
0.154151
0.00285686
0.000272069
0.170913
0.0029731
0.000160974
0.182571
0.00305279
-4.77618e-08
0.188548
0.00309326
-0.000161066
0.188548
0.00309326
-0.000272153
0.182571
0.00305279
-0.000293082
0.170913
0.00297311
-0.00020294
0.154151
0.00285686
0.133009
-4.74131e-08
0.00271
-1.37105e-06
7.56437e-05
0.0283861
-2.2639e-10
-1.97467e-06
8.30412e-05
0.0313268
-1.58862e-06
8.93777e-05
0.0337999
-8.77814e-07
9.43145e-05
0.0355888
-1.60712e-09
9.69231e-05
0.0365278
8.74625e-07
9.69232e-05
0.0365278
1.58551e-06
9.43148e-05
0.0355888
1.97165e-06
8.93783e-05
0.0337999
1.3681e-06
8.3042e-05
0.0313268
7.56442e-05
0.028386
-2.81169e-09
-1.64215e-06
0.000285154
0.0763741
-5.65444e-10
-2.47165e-06
0.000314982
0.0843127
-1.99118e-06
0.000340775
0.0909683
-1.063e-06
0.000360342
0.0957705
-5.34022e-09
0.000370779
0.0982876
1.05243e-06
0.00037078
0.0982876
1.98101e-06
0.000360343
0.0957705
2.462e-06
0.000340777
0.0909682
1.63303e-06
0.000314985
0.0843126
0.000285155
0.076374
-8.35052e-09
7.6169e-07
0.000587819
0.113523
-9.28156e-10
9.7132e-07
0.000650329
0.125502
1.17767e-06
0.000704245
0.135504
8.36187e-07
0.000744545
0.142703
-9.38738e-09
0.000766038
0.146471
-8.54685e-07
0.000766039
0.146471
-1.19534e-06
0.000744547
0.142703
-9.87446e-07
0.000704248
0.135504
-7.75408e-07
0.000650333
0.125502
0.000587823
0.113523
-1.35806e-08
5.78128e-06
0.000926403
0.140565
-1.33407e-09
8.53802e-06
0.00102346
0.155717
8.27518e-06
0.00110684
0.168309
5.06702e-06
0.0011684
0.177345
-1.36403e-08
0.00120111
0.182065
-5.09383e-06
0.00120111
0.182065
-8.30062e-06
0.00116841
0.177345
-8.56135e-06
0.00110685
0.168309
-5.80199e-06
0.00102346
0.155717
0.00092641
0.140565
-1.88413e-08
1.36865e-05
0.00123864
0.158248
-1.77429e-09
2.0282e-05
0.00136397
0.175796
1.9304e-05
0.00147079
0.1903
1.16416e-05
0.0015487
0.200672
-1.7988e-08
0.00158987
0.20608
-1.16769e-05
0.00158987
0.20608
-1.93372e-05
0.00154871
0.200672
-2.03121e-05
0.0014708
0.190299
-1.37127e-05
0.00136398
0.175796
0.00123865
0.158248
-2.35855e-08
2.4238e-05
0.00147028
0.167334
-2.26916e-09
3.58388e-05
0.00161154
0.18659
3.39127e-05
0.00173051
0.202409
2.03459e-05
0.00181618
0.213679
-2.23172e-08
0.00186114
0.219542
-2.03896e-05
0.00186114
0.219542
-3.39535e-05
0.00181618
0.213679
-3.58753e-05
0.00173052
0.202409
-2.42692e-05
0.00161155
0.18659
0.00147029
0.167334
-2.7741e-08
3.70049e-05
0.00158389
0.168593
-2.86616e-09
5.45403e-05
0.00172583
0.188962
5.14406e-05
0.00184356
0.205587
3.07723e-05
0.00192714
0.217379
-2.64774e-08
0.00197066
0.223498
-3.0824e-05
0.00197066
0.223498
-5.14887e-05
0.00192714
0.217379
-5.45828e-05
0.00184357
0.205587
-3.70405e-05
0.00172584
0.188962
0.0015839
0.168592
-3.1234e-08
5.15154e-05
0.0015634
0.162801
-3.56105e-09
7.56674e-05
0.00169136
0.183786
7.11126e-05
0.00179557
0.200793
4.24189e-05
0.0018684
0.212796
-3.02678e-08
0.00190597
0.219004
-4.24779e-05
0.00190597
0.219004
-7.11671e-05
0.0018684
0.212796
-7.57151e-05
0.00179558
0.200793
-5.15546e-05
0.00169137
0.183786
0.00156341
0.162801
-3.39661e-08
6.77436e-05
0.00141464
0.150734
-4.32575e-09
9.86575e-05
0.00151788
0.171949
9.21261e-05
0.00159992
0.189006
5.47363e-05
0.00165622
0.200968
-3.34022e-08
0.00168498
0.20713
-5.48013e-05
0.00168499
0.20713
-9.21858e-05
0.00165623
0.200967
-9.8709e-05
0.00159992
0.189006
-6.77853e-05
0.00151789
0.171949
0.00141465
0.150734
-3.59226e-08
8.35779e-05
0.133176
-4.9582e-09
0.00116481
0.000121327
0.154396
0.00123535
0.000113086
0.17123
0.00129141
6.70591e-05
0.182944
0.00133
-3.54361e-08
0.18895
0.00134965
-6.71279e-05
0.18895
0.00134965
-0.000113149
0.182943
0.00133
-0.000121381
0.17123
0.00129142
-8.36209e-05
0.154396
0.00123535
0.133176
-3.66443e-08
0.00116482
-3.91612e-07
1.92329e-05
0.0283672
-1.54149e-10
-6.03671e-07
2.13085e-05
0.0313057
-4.85801e-07
2.32112e-05
0.0337766
-2.70176e-07
2.47799e-05
0.0355638
-1.1414e-09
2.56263e-05
0.0365019
2.67922e-07
2.56264e-05
0.0365019
4.83597e-07
2.47801e-05
0.0355638
6.01535e-07
2.32116e-05
0.0337766
3.89533e-07
2.1309e-05
0.0313057
1.92332e-05
0.0283672
-1.95594e-09
-5.20309e-07
8.7009e-05
0.0763068
-4.07926e-10
-8.82795e-07
9.68841e-05
0.0842375
-7.41179e-07
0.000105691
0.0908856
-4.08294e-07
0.00011255
0.0956824
-3.79342e-09
0.000116253
0.0981965
4.00807e-07
0.000116254
0.0981965
7.33963e-07
0.000112551
0.0956824
8.75955e-07
0.000105692
0.0908856
5.13833e-07
9.68859e-05
0.0842374
8.70102e-05
0.0763068
-5.87403e-09
2.96667e-07
0.000194054
0.113416
-6.77424e-10
2.40155e-07
0.000216258
0.125382
2.72575e-07
0.000235777
0.135374
1.94972e-07
0.000250632
0.142565
-6.67461e-09
0.000258627
0.146329
-2.081e-07
0.000258627
0.146329
-2.85147e-07
0.000250633
0.142565
-2.51548e-07
0.000235779
0.135374
-3.06349e-07
0.000216261
0.125382
0.000194057
0.113415
-9.61042e-09
2.1345e-06
0.000320713
0.140436
-9.81617e-10
2.99603e-06
0.000356783
0.155576
2.84815e-06
0.000388225
0.168157
1.72727e-06
0.000411778
0.177185
-9.71006e-09
0.000424388
0.181901
-1.74634e-06
0.000424389
0.181901
-2.86628e-06
0.000411781
0.177185
-3.01267e-06
0.000388228
0.168157
-2.14926e-06
0.000356788
0.155575
0.000320718
0.140436
-1.34363e-08
5.16295e-06
0.000443543
0.15812
-1.30571e-09
7.50952e-06
0.000491752
0.175659
7.08991e-06
0.000533351
0.190155
4.25712e-06
0.000564086
0.200522
-1.28058e-08
0.000580438
0.205928
-4.28223e-06
0.000580439
0.205928
-7.11362e-06
0.000564089
0.200522
-7.53104e-06
0.000533356
0.190155
-5.18173e-06
0.000491758
0.175659
0.000443549
0.15812
-1.69324e-08
9.33757e-06
0.000540431
0.167228
-1.65903e-09
1.37084e-05
0.000596315
0.186481
1.2928e-05
0.000643923
0.2023
7.74111e-06
0.000678611
0.21357
-1.58876e-08
0.000696933
0.219434
-7.77221e-06
0.000696934
0.219434
-1.29572e-05
0.000678614
0.21357
-1.37346e-05
0.000643929
0.2023
-9.36004e-06
0.000596322
0.186481
0.000540438
0.167228
-2.00407e-08
1.45216e-05
0.000594634
0.168524
-2.06793e-09
2.13644e-05
0.000652167
0.1889
2.01295e-05
0.000700404
0.205532
1.20332e-05
0.000735027
0.217331
-1.88512e-08
0.000753161
0.223454
-1.207e-05
0.000753163
0.223454
-2.01639e-05
0.000735031
0.217331
-2.1395e-05
0.00070041
0.205532
-1.45474e-05
0.000652174
0.1889
0.000594641
0.168524
-2.27127e-08
2.05373e-05
0.000597368
0.162778
-2.53168e-09
3.01782e-05
0.000650399
0.183778
2.83634e-05
0.000694012
0.200801
1.69176e-05
0.000724779
0.212818
-2.15647e-08
0.000740731
0.219034
-1.69596e-05
0.000740732
0.219034
-2.84024e-05
0.000724783
0.212818
-3.02126e-05
0.000694017
0.200801
-2.05658e-05
0.000650406
0.183778
0.000597375
0.162778
-2.48807e-08
2.73118e-05
0.000548745
0.150756
-3.03213e-09
3.98135e-05
0.00059249
0.171995
3.72047e-05
0.000627458
0.189075