/*--------------------------------*- C++ -*----------------------------------*\
| =========                 |                                                 |
| \\      /  F ield         | OpenFOAM: The Open Source CFD Toolbox           |
|  \\    /   O peration     | Version:  2106                                  |
|   \\  /    A nd           | Website:  www.openfoam.com                      |
|    \\/     M anipulation  |                                                 |
\*---------------------------------------------------------------------------*/
FoamFile
{
    version     2.0;
    format      ascii;
    arch        "LSB;label=32;scalar=64";
    class       volVectorField;
    location    "0.59";
    object      U;
}
// * * * * * * * * * * * * * * * * * * * * * * * * * * * * * * * * * * * * * //

dimensions      [0 1 -1 0 0 0 0];

internalField   nonuniform List<vector> 
10000
(
(0.0625614 0.0737185 0.345081)
(0.0533574 0.0838385 0.35956)
(0.0398481 0.0929897 0.370923)
(0.0247203 0.0993719 0.378771)
(0.0083776 0.102672 0.38276)
(-0.00837762 0.102672 0.38276)
(-0.0247203 0.0993719 0.378771)
(-0.0398482 0.0929897 0.370923)
(-0.0533574 0.0838385 0.35956)
(-0.0625614 0.0737185 0.345081)
(0.172058 0.204128 0.727803)
(0.145239 0.231371 0.747451)
(0.10843 0.255331 0.76209)
(0.067086 0.271918 0.771987)
(0.0227084 0.280472 0.776935)
(-0.0227085 0.280472 0.776935)
(-0.067086 0.271918 0.771987)
(-0.10843 0.255331 0.76209)
(-0.145239 0.231371 0.747451)
(-0.172058 0.204128 0.727803)
(0.222632 0.264355 0.923708)
(0.185826 0.296065 0.939534)
(0.137845 0.323753 0.950597)
(0.0848635 0.342696 0.9579)
(0.0286555 0.352402 0.961482)
(-0.0286555 0.352402 0.961482)
(-0.0848635 0.342696 0.9579)
(-0.137845 0.323753 0.950597)
(-0.185827 0.296065 0.939534)
(-0.222632 0.264355 0.923708)
(0.237652 0.281736 1.02282)
(0.196419 0.311615 1.03332)
(0.144803 0.337758 1.03999)
(0.0887342 0.355442 1.04425)
(0.0298946 0.364445 1.04629)
(-0.0298947 0.364445 1.04629)
(-0.0887343 0.355442 1.04425)
(-0.144803 0.337758 1.03999)
(-0.196419 0.311615 1.03332)
(-0.237653 0.281736 1.02282)
(0.235713 0.278941 1.07117)
(0.193216 0.304939 1.07713)
(0.141692 0.327823 1.08025)
(0.0864796 0.34317 1.08213)
(0.0290788 0.350935 1.08298)
(-0.029079 0.350935 1.08298)
(-0.0864797 0.343169 1.08213)
(-0.141692 0.327823 1.08025)
(-0.193216 0.304939 1.07713)
(-0.235713 0.278941 1.07117)
(0.224704 0.265428 1.09225)
(0.182798 0.286832 1.09483)
(0.133416 0.305824 1.09548)
(0.081128 0.318487 1.09573)
(0.0272314 0.324857 1.09578)
(-0.0272315 0.324857 1.09578)
(-0.0811281 0.318487 1.09573)
(-0.133417 0.305824 1.09548)
(-0.182798 0.286832 1.09483)
(-0.224704 0.265428 1.09225)
(0.208364 0.2455 1.09886)
(0.168222 0.262071 1.09914)
(0.122227 0.276921 1.09822)
(0.0740634 0.286803 1.09746)
(0.0248184 0.291753 1.09703)
(-0.0248185 0.291753 1.09703)
(-0.0740636 0.286803 1.09746)
(-0.122227 0.276921 1.09822)
(-0.168222 0.262071 1.09914)
(-0.208364 0.245499 1.09886)
(0.189026 0.221881 1.09817)
(0.151433 0.233663 1.09699)
(0.109564 0.24436 1.09519)
(0.0661741 0.251512 1.09388)
(0.0221396 0.255095 1.0932)
(-0.0221398 0.255095 1.0932)
(-0.0661742 0.251512 1.09388)
(-0.109565 0.24436 1.09519)
(-0.151433 0.233663 1.09699)
(-0.189027 0.221881 1.09817)
(0.168223 0.196361 1.09419)
(0.133805 0.203541 1.09212)
(0.0964173 0.210211 1.08991)
(0.0580514 0.214801 1.08836)
(0.0193924 0.217119 1.08757)
(-0.0193926 0.217119 1.08757)
(-0.0580516 0.2148 1.08836)
(-0.0964175 0.210211 1.08991)
(-0.133805 0.203541 1.09212)
(-0.168223 0.196361 1.09419)
(0.147117 0.17059 1.08913)
(0.116537 0.171682 1.08661)
(0.0833931 0.174954 1.08425)
(0.0500245 0.177339 1.08266)
(0.0166813 0.178565 1.08186)
(-0.0166816 0.178565 1.08186)
(-0.0500248 0.177339 1.08266)
(-0.0833933 0.174954 1.08425)
(-0.116537 0.171682 1.08661)
(-0.147117 0.17059 1.08913)
(0.0111948 0.0143 0.266504)
(0.00940519 0.0175906 0.278765)
(0.00710173 0.0202339 0.288806)
(0.0044956 0.022046 0.295795)
(0.00153816 0.0229902 0.299372)
(-0.00153819 0.0229902 0.299372)
(-0.00449562 0.022046 0.295795)
(-0.00710175 0.0202339 0.288806)
(-0.00940521 0.0175906 0.278765)
(-0.0111948 0.0143 0.266504)
(0.054412 0.0658361 0.629487)
(0.0467232 0.0792094 0.651432)
(0.0357584 0.0906687 0.669031)
(0.0226066 0.0987883 0.681135)
(0.00773616 0.10305 0.687278)
(-0.00773623 0.10305 0.687278)
(-0.0226067 0.0987883 0.681135)
(-0.0357585 0.0906686 0.669031)
(-0.0467232 0.0792094 0.651432)
(-0.0544121 0.0658361 0.629487)
(0.097773 0.116784 0.876455)
(0.0834176 0.138118 0.900279)
(0.0635056 0.156428 0.918965)
(0.039908 0.16935 0.931661)
(0.0136163 0.176098 0.938054)
(-0.0136165 0.176098 0.938054)
(-0.0399082 0.16935 0.931661)
(-0.0635057 0.156428 0.918965)
(-0.0834177 0.138118 0.900279)
(-0.0977731 0.116784 0.876455)
(0.133847 0.158695 1.04423)
(0.113225 0.184822 1.06623)
(0.0856442 0.207137 1.08307)
(0.0535153 0.222773 1.09436)
(0.0182072 0.230894 1.10001)
(-0.0182074 0.230894 1.10001)
(-0.0535155 0.222773 1.09436)
(-0.0856444 0.207137 1.08307)
(-0.113226 0.184822 1.06623)
(-0.133847 0.158695 1.04423)
(0.159672 0.188239 1.15728)
(0.133916 0.216099 1.1759)
(0.10066 0.239736 1.18977)
(0.0625746 0.256179 1.19895)
(0.0212348 0.264671 1.2035)
(-0.021235 0.264671 1.2035)
(-0.0625748 0.256179 1.19895)
(-0.100661 0.239736 1.18977)
(-0.133917 0.216099 1.1759)
(-0.159672 0.188239 1.15728)
(0.175293 0.205588 1.23233)
(0.145775 0.232696 1.24715)
(0.108914 0.255494 1.25786)
(0.0673822 0.271247 1.26486)
(0.0228118 0.279341 1.26829)
(-0.0228121 0.279341 1.26829)
(-0.0673825 0.271247 1.26486)
(-0.108914 0.255494 1.25786)
(-0.145775 0.232696 1.24715)
(-0.175293 0.205588 1.23233)
(0.181771 0.212087 1.28119)
(0.149872 0.236544 1.29242)
(0.111319 0.25687 1.30026)
(0.0685592 0.270831 1.3053)
(0.0231582 0.27797 1.30775)
(-0.0231586 0.27797 1.30775)
(-0.0685596 0.270831 1.3053)
(-0.111319 0.25687 1.30026)
(-0.149872 0.236543 1.29242)
(-0.181771 0.212087 1.28119)
(0.180448 0.209368 1.31222)
(0.147493 0.229794 1.32035)
(0.10893 0.246496 1.32581)
(0.0668025 0.257913 1.32925)
(0.0225169 0.263733 1.33089)
(-0.0225173 0.263733 1.33089)
(-0.0668029 0.257913 1.32925)
(-0.108931 0.246496 1.32581)
(-0.147493 0.229794 1.32035)
(-0.180448 0.209368 1.31222)
(0.172782 0.199107 1.33124)
(0.140057 0.214572 1.33688)
(0.102854 0.226859 1.3405)
(0.0628064 0.235276 1.34271)
(0.021125 0.239562 1.34375)
(-0.0211254 0.239562 1.34375)
(-0.0628068 0.235276 1.34271)
(-0.102854 0.226859 1.3405)
(-0.140058 0.214572 1.33688)
(-0.172782 0.199107 1.33124)
(0.160342 0.18411 1.34238)
(0.129111 0.192026 1.34618)
(0.0940392 0.199552 1.34843)
(0.0571349 0.204742 1.34973)
(0.0191703 0.207383 1.35032)
(-0.0191707 0.207383 1.35032)
(-0.0571353 0.204742 1.34973)
(-0.0940396 0.199552 1.34843)
(-0.129112 0.192026 1.34618)
(-0.160343 0.18411 1.34238)
(0.0011214 0.00125232 0.157635)
(0.00113262 0.00159926 0.165934)
(0.000882911 0.00200729 0.172865)
(0.000590999 0.00230952 0.177771)
(0.000205934 0.002477 0.18031)
(-0.000205961 0.002477 0.18031)
(-0.000591025 0.00230952 0.177771)
(-0.000882935 0.00200728 0.172865)
(-0.00113264 0.00159924 0.165934)
(-0.00112142 0.00125231 0.157635)
(0.0180108 0.0208994 0.441649)
(0.0161972 0.0254971 0.461853)
(0.0126766 0.0298238 0.478446)
(0.00814158 0.0330195 0.490092)
(0.0028054 0.0347362 0.496086)
(-0.00280549 0.0347362 0.496086)
(-0.00814166 0.0330195 0.490092)
(-0.0126767 0.0298238 0.478446)
(-0.0161973 0.0254971 0.461853)
(-0.0180108 0.0208994 0.441649)
(0.0410521 0.0477842 0.685245)
(0.0362572 0.0574084 0.712825)
(0.0281677 0.066187 0.735113)
(0.017943 0.0726059 0.750626)
(0.0061606 0.0760243 0.758571)
(-0.00616074 0.0760243 0.758571)
(-0.0179432 0.0726059 0.750626)
(-0.0281678 0.0661869 0.735113)
(-0.0362573 0.0574084 0.712825)
(-0.0410522 0.0477842 0.685245)
(0.0659082 0.0767778 0.887881)
(0.0574472 0.090948 0.919063)
(0.0443004 0.103626 0.943843)
(0.0280391 0.112798 0.960945)
(0.00959784 0.117648 0.969659)
(-0.00959805 0.117648 0.969659)
(-0.0280393 0.112798 0.960945)
(-0.0443006 0.103626 0.943843)
(-0.0574474 0.0909479 0.919063)
(-0.0659084 0.0767777 0.887881)
(0.088109 0.102523 1.05298)
(0.0759263 0.119771 1.08498)
(0.0581352 0.134976 1.10997)
(0.0365887 0.145869 1.12708)
(0.0124904 0.151592 1.13575)
(-0.0124907 0.151592 1.13575)
(-0.036589 0.145869 1.12708)
(-0.0581355 0.134975 1.10997)
(-0.0759265 0.119771 1.08498)
(-0.0881092 0.102523 1.05298)
(0.105414 0.122343 1.18543)
(0.0898857 0.140918 1.21636)
(0.0683527 0.157068 1.24011)
(0.0427954 0.168537 1.25622)
(0.0145721 0.174526 1.26436)
(-0.0145724 0.174526 1.26436)
(-0.0427957 0.168537 1.25622)
(-0.068353 0.157067 1.24011)
(-0.089886 0.140918 1.21636)
(-0.105414 0.122343 1.18543)
(0.116974 0.135271 1.29038)
(0.0987305 0.153488 1.31908)
(0.0745749 0.169091 1.34076)
(0.0464585 0.180083 1.35535)
(0.0157808 0.18579 1.36268)
(-0.0157811 0.18579 1.36268)
(-0.0464589 0.180083 1.35535)
(-0.0745752 0.169091 1.34076)
(-0.0987308 0.153488 1.31908)
(-0.116975 0.135271 1.29038)
(0.122668 0.1412 1.37258)
(0.102495 0.157584 1.39847)
(0.0769048 0.171368 1.41773)
(0.0476771 0.181007 1.43059)
(0.0161557 0.185988 1.43702)
(-0.0161561 0.185988 1.43702)
(-0.0476775 0.181007 1.43059)
(-0.0769052 0.171368 1.41773)
(-0.102495 0.157584 1.39847)
(-0.122669 0.1412 1.37258)
(0.122896 0.140569 1.43616)
(0.101673 0.153942 1.45911)
(0.0757588 0.164866 1.47593)
(0.046725 0.172472 1.48705)
(0.0157925 0.176387 1.49258)
(-0.015793 0.176387 1.49257)
(-0.0467255 0.172472 1.48705)
(-0.0757592 0.164866 1.47593)
(-0.101674 0.153942 1.45911)
(-0.122896 0.140569 1.43616)
(0.118477 0.135192 1.48446)
(0.097061 0.143225 1.50497)
(0.07161 0.150492 1.51945)
(0.0438923 0.155526 1.52888)
(0.0147899 0.158102 1.53352)
(-0.0147905 0.158102 1.53352)
(-0.0438928 0.155526 1.52888)
(-0.0716104 0.150492 1.51944)
(-0.0970614 0.143225 1.50497)
(-0.118477 0.135192 1.48445)
(0.000712739 0.000936127 0.137914)
(0.000557061 0.00117378 0.144722)
(0.000381471 0.00134231 0.150265)
(0.000236553 0.00144204 0.154157)
(7.92062e-05 0.00149195 0.156164)
(-7.92307e-05 0.00149195 0.156164)
(-0.000236576 0.00144203 0.154157)
(-0.000381493 0.0013423 0.150265)
(-0.000557082 0.00117377 0.144722)
(-0.000712756 0.000936113 0.137914)
(0.00703302 0.00840968 0.395476)
(0.00610713 0.0103657 0.413545)
(0.00469625 0.0120583 0.428173)
(0.00299616 0.0132733 0.438411)
(0.00102897 0.0139198 0.44368)
(-0.00102905 0.0139198 0.44368)
(-0.00299624 0.0132733 0.438411)
(-0.00469632 0.0120582 0.428173)
(-0.0061072 0.0103657 0.413545)
(-0.00703307 0.00840964 0.395476)
(0.0172468 0.0203644 0.628652)
(0.0150452 0.0247949 0.655326)
(0.0116438 0.0286831 0.676753)
(0.00741801 0.031506 0.691687)
(0.00254746 0.0330077 0.699352)
(-0.0025476 0.0330076 0.699352)
(-0.00741814 0.031506 0.691687)
(-0.0116439 0.0286831 0.676753)
(-0.0150453 0.0247948 0.655326)
(-0.0172469 0.0203643 0.628651)
(0.0295881 0.0347387 0.835515)
(0.0257269 0.0417904 0.868108)
(0.0198847 0.0479784 0.894043)
(0.0126279 0.0524664 0.91203)
(0.00433054 0.0548465 0.921233)
(-0.00433074 0.0548465 0.921233)
(-0.0126281 0.0524664 0.91203)
(-0.0198849 0.0479784 0.894043)
(-0.0257271 0.0417903 0.868108)
(-0.0295882 0.0347386 0.835515)
(0.0420079 0.0491005 1.01601)
(0.0363007 0.0583218 1.0521)
(0.0279446 0.0663678 1.08051)
(0.0176762 0.0721742 1.10011)
(0.00605023 0.0752404 1.11011)
(-0.00605049 0.0752404 1.11011)
(-0.0176764 0.0721741 1.10011)
(-0.0279448 0.0663677 1.08051)
(-0.0363009 0.0583218 1.0521)
(-0.0420081 0.0491005 1.01601)
(0.0530174 0.0616947 1.1713)
(0.0454666 0.0722875 1.20885)
(0.034816 0.0814439 1.23808)
(0.0219263 0.0880079 1.25814)
(0.00748887 0.0914574 1.26833)
(-0.00748918 0.0914574 1.26833)
(-0.0219266 0.0880079 1.25814)
(-0.0348163 0.0814438 1.23808)
(-0.0454669 0.0722874 1.20885)
(-0.0530176 0.0616946 1.1713)
(0.061633 0.0713835 1.30318)
(0.0524043 0.0823952 1.34058)
(0.0398882 0.0917929 1.36937)
(0.0250043 0.0984797 1.38902)
(0.00852052 0.101976 1.39897)
(-0.0085209 0.101976 1.39897)
(-0.0250046 0.0984797 1.38902)
(-0.0398886 0.0917928 1.36937)
(-0.0524046 0.0823952 1.34058)
(-0.0616333 0.0713835 1.30318)
(0.0672654 0.0774876 1.41368)
(0.0566682 0.0879458 1.44976)
(0.0428566 0.0967248 1.47724)
(0.0267349 0.102921 1.49588)
(0.00908814 0.106144 1.50528)
(-0.00908857 0.106144 1.50528)
(-0.0267353 0.102921 1.49588)
(-0.042857 0.0967248 1.47723)
(-0.0566686 0.0879458 1.44976)
(-0.0672657 0.0774876 1.41368)
(0.0697206 0.0797457 1.50479)
(0.0581765 0.0887731 1.53887)
(0.0436846 0.0961385 1.56452)
(0.0271043 0.1013 1.58176)
(0.00918862 0.103969 1.59041)
(-0.0091891 0.103969 1.59041)
(-0.0271048 0.1013 1.58176)
(-0.043685 0.0961384 1.56452)
(-0.0581769 0.088773 1.53887)
(-0.0697209 0.0797456 1.50479)
(0.0691807 0.0789456 1.57821)
(0.0571208 0.0849422 1.61056)
(0.0424555 0.0901543 1.63399)
(0.0261666 0.0937719 1.64954)
(0.00884131 0.0956288 1.65728)
(-0.00884181 0.0956288 1.65728)
(-0.0261671 0.0937719 1.64954)
(-0.0424559 0.0901543 1.63399)
(-0.0571212 0.0849421 1.61056)
(-0.069181 0.0789456 1.57821)
(0.000129903 0.000142014 0.127008)
(0.000120374 0.00018619 0.133352)
(8.89315e-05 0.000231488 0.138508)
(6.08332e-05 0.000263237 0.142134)
(2.10058e-05 0.000281236 0.144006)
(-2.10264e-05 0.000281234 0.144006)
(-6.08532e-05 0.000263233 0.142134)
(-8.89502e-05 0.000231481 0.138508)
(-0.000120391 0.00018618 0.133352)
(-0.000129918 0.000142002 0.127008)
(0.00250365 0.0028959 0.368332)
(0.00223942 0.00359017 0.385587)
(0.00175405 0.00422968 0.399565)
(0.00113364 0.00470549 0.409373)
(0.000391426 0.00496376 0.414427)
(-0.000391494 0.00496375 0.414427)
(-0.0011337 0.00470547 0.409373)
(-0.00175411 0.00422966 0.399565)
(-0.00223947 0.00359014 0.385587)
(-0.00250369 0.00289587 0.368332)
(0.00682003 0.00791186 0.592061)
(0.00605925 0.00969924 0.618249)
(0.00474932 0.0113225 0.639351)
(0.00305204 0.0125301 0.654116)
(0.00105225 0.013181 0.661712)
(-0.00105236 0.013181 0.661712)
(-0.00305215 0.0125301 0.654116)
(-0.00474943 0.0113225 0.639351)
(-0.00605935 0.0096992 0.618249)
(-0.00682011 0.00791181 0.592061)
(0.0125163 0.0145226 0.796678)
(0.0110473 0.0176093 0.829733)
(0.00863384 0.0203864 0.856185)
(0.00552474 0.022442 0.87463)
(0.00190146 0.0235444 0.884098)
(-0.00190163 0.0235444 0.884098)
(-0.0055249 0.022442 0.874629)
(-0.00863399 0.0203864 0.856184)
(-0.0110474 0.0176092 0.829733)
(-0.0125164 0.0145225 0.796678)
(0.0187191 0.0216847 0.981435)
(0.0164026 0.0259844 1.01934)
(0.0127619 0.029817 1.04942)
(0.00813184 0.032635 1.07032)
(0.00279331 0.0341388 1.08102)
(-0.00279353 0.0341388 1.08102)
(-0.00813205 0.032635 1.07032)
(-0.0127621 0.029817 1.04942)
(-0.0164027 0.0259843 1.01934)
(-0.0187193 0.0216847 0.981435)
(0.0246609 0.0284873 1.1462)
(0.0214374 0.0336927 1.18708)
(0.0165889 0.0382831 1.21924)
(0.0105236 0.041633 1.24148)
(0.00360719 0.0434114 1.25284)
(-0.00360746 0.0434114 1.25284)
(-0.0105239 0.041633 1.24148)
(-0.0165891 0.0382831 1.21924)
(-0.0214376 0.0336927 1.18708)
(-0.0246611 0.0284872 1.1462)
(0.0297281 0.0342115 1.29129)
(0.0256181 0.039873 1.33347)
(0.0197031 0.0448007 1.36634)
(0.0124404 0.0483675 1.38899)
(0.00425433 0.0502509 1.40052)
(-0.00425466 0.0502509 1.40052)
(-0.0124408 0.0483675 1.38899)
(-0.0197034 0.0448006 1.36634)
(-0.0256184 0.039873 1.33346)
(-0.0297283 0.0342115 1.29129)
(0.0334691 0.0383285 1.41724)
(0.0285731 0.0439273 1.45932)
(0.0218291 0.048722 1.49184)
(0.0137133 0.0521607 1.51411)
(0.00467774 0.0539659 1.52541)
(-0.00467811 0.0539659 1.52541)
(-0.0137137 0.0521607 1.51411)
(-0.0218294 0.048722 1.49184)
(-0.0285734 0.0439273 1.45932)
(-0.0334694 0.0383284 1.41724)
(0.0356408 0.040534 1.52463)
(0.030123 0.0455606 1.56569)
(0.0228363 0.0497433 1.59705)
(0.0142622 0.0527134 1.61835)
(0.00485054 0.0542615 1.6291)
(-0.00485095 0.0542615 1.6291)
(-0.0142626 0.0527134 1.61835)
(-0.0228367 0.0497433 1.59705)
(-0.0301233 0.0455606 1.56569)
(-0.0356411 0.040534 1.52463)
(0.0362159 0.0411346 1.61388)
(0.0302353 0.0446854 1.65405)
(0.0226662 0.0477575 1.68357)
(0.0140515 0.0499078 1.70335)
(0.00476123 0.0510176 1.71325)
(-0.00476166 0.0510176 1.71325)
(-0.014052 0.0499078 1.70335)
(-0.0226666 0.0477575 1.68357)
(-0.0302356 0.0446854 1.65405)
(-0.0362162 0.0411346 1.61388)
(7.9199e-05 0.000106937 0.124061)
(5.54034e-05 0.000135665 0.130208)
(3.39253e-05 0.000152286 0.135173)
(2.07281e-05 0.000160484 0.138658)
(6.72611e-06 0.0001644 0.140454)
(-6.74261e-06 0.000164399 0.140454)
(-2.07444e-05 0.00016048 0.138658)
(-3.39401e-05 0.00015228 0.135173)
(-5.54174e-05 0.000135657 0.130208)
(-7.92111e-05 0.000106927 0.124061)
(0.00103279 0.00123355 0.359893)
(0.000886984 0.00153005 0.376704)
(0.000678226 0.00177953 0.390266)
(0.00043307 0.00195857 0.399772)
(0.000148633 0.00205431 0.404668)
(-0.000148687 0.0020543 0.404668)
(-0.000433123 0.00195856 0.399772)
(-0.000678275 0.00177951 0.390266)
(-0.000887029 0.00153002 0.376704)
(-0.00103283 0.00123352 0.359892)
(0.0028464 0.00335071 0.579731)
(0.00248561 0.00412154 0.605491)
(0.00192971 0.00479403 0.626196)
(0.00123457 0.00528759 0.640681)
(0.000424767 0.00555232 0.648134)
(-0.000424862 0.00555231 0.648134)
(-0.00123466 0.00528758 0.640681)
(-0.0019298 0.004794 0.626195)
(-0.00248569 0.0041215 0.605491)
(-0.00284647 0.00335067 0.57973)
(0.00533533 0.00624165 0.782834)
(0.00467224 0.00760929 0.815778)
(0.00363858 0.00881455 0.842122)
(0.00232579 0.00970269 0.860507)
(0.000800166 0.0101785 0.869951)
(-0.000800303 0.0101785 0.869951)
(-0.00232592 0.00970267 0.860507)
(-0.0036387 0.00881452 0.842121)
(-0.00467235 0.00760925 0.815778)
(-0.00533543 0.0062416 0.782834)
(0.00817607 0.00952071 0.968695)
(0.00714385 0.0114872 1.00706)
(0.00555647 0.0132205 1.03755)
(0.00354336 0.0144952 1.05876)
(0.0012178 0.0151762 1.06964)
(-0.00121799 0.0151762 1.06964)
(-0.00354354 0.0144952 1.05876)
(-0.00555663 0.0132205 1.03755)
(-0.007144 0.0114871 1.00706)
(-0.00817619 0.00952066 0.968695)
(0.0110391 0.0127978 1.13704)
(0.00959772 0.015256 1.17911)
(0.00743899 0.0174112 1.21231)
(0.00472817 0.0189881 1.23533)
(0.00162241 0.0198274 1.24712)
(-0.00162263 0.0198273 1.24712)
(-0.00472838 0.0189881 1.23533)
(-0.00743919 0.0174111 1.21231)
(-0.00959791 0.015256 1.17911)
(-0.0110393 0.0127977 1.13703)
(0.0136205 0.0157163 1.28776)
(0.0117617 0.0184738 1.33194)
(0.00907119 0.0208679 1.36653)
(0.00574234 0.0226077 1.39043)
(0.00196646 0.0235293 1.40264)
(-0.00196673 0.0235292 1.40264)
(-0.0057426 0.0226077 1.39043)
(-0.00907144 0.0208678 1.36653)
(-0.0117619 0.0184738 1.33194)
(-0.0136206 0.0157163 1.28775)
(0.0156636 0.0179742 1.42085)
(0.0134163 0.0207837 1.4657)
(0.0102853 0.0231892 1.50055)
(0.0064804 0.0249221 1.52453)
(0.00221392 0.0258348 1.53673)
(-0.00221422 0.0258348 1.53673)
(-0.00648069 0.0249221 1.52453)
(-0.0102856 0.0231891 1.50055)
(-0.0134165 0.0207836 1.4657)
(-0.0156638 0.0179742 1.42085)
(0.0169996 0.0193604 1.53623)
(0.0144253 0.0219596 1.58074)
(0.0109773 0.0241263 1.61495)
(0.00687668 0.0256709 1.6383)
(0.00234238 0.0264782 1.65012)
(-0.00234271 0.0264782 1.65012)
(-0.006877 0.0256709 1.6383)
(-0.0109776 0.0241263 1.61495)
(-0.0144256 0.0219596 1.58074)
(-0.0169998 0.0193604 1.53623)
(0.017565 0.0199739 1.63363)
(0.0147225 0.0218919 1.67789)
(0.0110798 0.0235367 1.71064)
(0.00688913 0.0246913 1.73267)
(0.00233778 0.0252886 1.74374)
(-0.00233814 0.0252886 1.74373)
(-0.00688948 0.0246913 1.73267)
(-0.0110801 0.0235367 1.71063)
(-0.0147228 0.0218919 1.67789)
(-0.0175653 0.0199739 1.63363)
(1.1954e-05 1.47055e-05 0.122577)
(8.09579e-06 2.01415e-05 0.128657)
(4.49838e-06 2.37044e-05 0.133565)
(3.32088e-06 2.57402e-05 0.137011)
(1.11046e-06 2.69222e-05 0.138787)
(-1.12299e-06 2.69213e-05 0.138787)
(-3.33309e-06 2.57374e-05 0.137011)
(-4.50994e-06 2.36999e-05 0.133565)
(-8.10674e-06 2.01352e-05 0.128657)
(-1.19632e-05 1.46978e-05 0.122577)
(0.000356479 0.000416557 0.355699)
(0.000311157 0.000520046 0.372342)
(0.000240968 0.000610323 0.38576)
(0.00015554 0.000677022 0.395169)
(5.36324e-05 0.000713265 0.400016)
(-5.3674e-05 0.000713262 0.400016)
(-0.000155581 0.000677014 0.395169)
(-0.000241006 0.00061031 0.38576)
(-0.000311192 0.000520029 0.372342)
(-0.000356509 0.000416536 0.355699)
(0.00106562 0.00123993 0.573463)
(0.000939823 0.00153376 0.599038)
(0.000735628 0.00179514 0.619592)
(0.000473557 0.00199035 0.63398)
(0.000163396 0.00209602 0.641384)
(-0.000163469 0.00209602 0.641384)
(-0.000473628 0.00199034 0.63398)
(-0.000735694 0.00179512 0.619592)
(-0.000939884 0.00153373 0.599038)
(-0.00106567 0.00123989 0.573463)
(0.00209032 0.00242585 0.775452)
(0.00184561 0.00297432 0.808316)
(0.00144726 0.00346449 0.834609)
(0.000929761 0.00383068 0.852975)
(0.000320644 0.00402834 0.862415)
(-0.00032075 0.00402834 0.862415)
(-0.000929864 0.00383066 0.852975)
(-0.00144735 0.00346447 0.834609)
(-0.0018457 0.00297429 0.808316)
(-0.0020904 0.00242581 0.775451)
(0.00331089 0.0038308 0.961327)
(0.00291565 0.00464994 0.999844)
(0.00228286 0.00538084 1.03048)
(0.00146274 0.00592501 1.05184)
(0.00050389 0.00621776 1.06279)
(-0.00050403 0.00621775 1.06279)
(-0.00146288 0.00592499 1.05184)
(-0.00228298 0.00538082 1.03048)
(-0.00291577 0.0046499 0.999843)
(-0.00331099 0.00383076 0.961327)
(0.00459153 0.00529349 1.13083)
(0.00402376 0.0063503 1.17339)
(0.00313955 0.00728776 1.20703)
(0.002005 0.00798186 1.2304)
(0.0006896 0.00835375 1.24237)
(-0.000689772 0.00835375 1.24237)
(-0.00200517 0.00798185 1.2304)
(-0.00313971 0.00728773 1.20703)
(-0.0040239 0.00635026 1.17339)
(-0.00459165 0.00529345 1.13083)
(0.00579532 0.00665296 1.28377)
(0.00504536 0.00787143 1.32881)
(0.00391753 0.00894199 1.36417)
(0.00249182 0.00972895 1.38866)
(0.000855327 0.0101485 1.40118)
(-0.000855532 0.0101485 1.40118)
(-0.00249201 0.00972894 1.38866)
(-0.00391772 0.00894197 1.36417)
(-0.00504553 0.0078714 1.32881)
(-0.00579547 0.00665292 1.28377)
(0.00679738 0.00776179 1.41992)
(0.00587087 0.00903449 1.46603)
(0.00453109 0.0101376 1.50198)
(0.00286839 0.0109409 1.52677)
(0.000982198 0.0113665 1.5394)
(-0.000982432 0.0113665 1.5394)
(-0.00286861 0.0109409 1.52677)
(-0.0045313 0.0101376 1.50198)
(-0.00587106 0.00903446 1.46603)
(-0.00679755 0.00776176 1.41992)
(0.00750734 0.00850864 1.53893)
(0.00642313 0.00971492 1.58507)
(0.00491935 0.0107322 1.62067)
(0.00309548 0.0114639 1.64503)
(0.00105668 0.0118484 1.65738)
(-0.00105694 0.0118484 1.65738)
(-0.00309573 0.0114639 1.64503)
(-0.00491959 0.0107322 1.62067)
(-0.00642334 0.0097149 1.58506)
(-0.00750752 0.00850862 1.53893)
(0.00787947 0.00892573 1.64019)
(0.00665184 0.00984692 1.68645)
(0.00503536 0.0106355 1.72081)
(0.00314336 0.0111924 1.74399)
(0.00106872 0.0114815 1.75565)
(-0.00106899 0.0114815 1.75565)
(-0.00314362 0.0111924 1.74399)
(-0.00503561 0.0106355 1.72081)
(-0.00665207 0.00984692 1.68645)
(-0.00787967 0.00892573 1.64019)
(7.57567e-06 1.2112e-05 0.12219)
(3.07371e-06 1.58093e-05 0.128244)
(5.30692e-07 1.68849e-05 0.133125)
(7.88349e-08 1.68846e-05 0.136551)
(-5.70255e-08 1.67799e-05 0.138318)
(4.78315e-08 1.67792e-05 0.138318)
(-8.77793e-08 1.68826e-05 0.136551)
(-5.39163e-07 1.68815e-05 0.133125)
(-3.08185e-06 1.58047e-05 0.128243)
(-7.58243e-06 1.21063e-05 0.12219)
(0.000135839 0.000165216 0.35443)
(0.00011243 0.000206622 0.370997)
(8.41681e-05 0.000239152 0.384342)
(5.33649e-05 0.000262023 0.393698)
(1.82368e-05 0.000274177 0.398516)
(-1.82673e-05 0.000274175 0.398516)
(-5.33946e-05 0.000262017 0.393697)
(-8.41961e-05 0.000239143 0.384342)
(-0.000112457 0.000206609 0.370996)
(-0.000135861 0.000165201 0.35443)
(0.000409081 0.000484276 0.571422)
(0.000353043 0.000600927 0.5969)
(0.000272746 0.000700229 0.617364)
(0.000174393 0.000773123 0.631687)
(5.99764e-05 0.000812283 0.639058)
(-6.00301e-05 0.00081228 0.639058)
(-0.000174445 0.000773114 0.631687)
(-0.000272795 0.000700214 0.617364)
(-0.000353088 0.000600907 0.5969)
(-0.000409119 0.000484253 0.571422)
(0.00081474 0.000954383 0.772934)
(0.00071182 0.00117527 0.805732)
(0.000554909 0.00136823 0.831963)
(0.000355516 0.00151139 0.850288)
(0.000122451 0.00158846 0.859707)
(-0.000122529 0.00158846 0.859707)
(-0.000355592 0.00151138 0.850288)
(-0.00055498 0.00136822 0.831963)
(-0.000711886 0.00117524 0.805732)
(-0.000814797 0.000954355 0.772934)
(0.00131335 0.00152835 0.95875)
(0.00115072 0.00186485 0.997286)
(0.000898886 0.00216133 1.02794)
(0.000575565 0.00238156 1.04931)
(0.00019822 0.00250001 1.06028)
(-0.000198323 0.0025 1.06028)
(-0.000575665 0.00238155 1.04931)
(-0.000898981 0.00216131 1.02794)
(-0.00115081 0.00186483 0.997286)
(-0.00131342 0.00152832 0.958749)
(0.00185371 0.0021455 1.12867)
(0.00162135 0.00258888 1.17138)
(0.0012647 0.00297935 1.20516)
(0.000808076 0.00326853 1.22864)
(0.000278014 0.0034236 1.24068)
(-0.000278142 0.00342359 1.24068)
(-0.0008082 0.00326852 1.22864)
(-0.00126482 0.00297933 1.20516)
(-0.00162145 0.00258885 1.17138)
(-0.0018538 0.00214547 1.12867)
(0.00237892 0.00273892 1.28248)
(0.00207108 0.00326082 1.32785)
(0.00160966 0.00371758 1.3635)
(0.00102509 0.00405387 1.38821)
(0.000352095 0.00423343 1.40085)
(-0.000352246 0.00423342 1.40085)
(-0.00102524 0.00405386 1.38821)
(-0.00160979 0.00371756 1.3635)
(-0.0020712 0.0032608 1.32785)
(-0.00237903 0.00273889 1.28248)
(0.00283292 0.00324223 1.41991)
(0.00244985 0.00379845 1.46654)
(0.00189402 0.00427976 1.50294)
(0.00120096 0.00463102 1.52807)
(0.000411576 0.00481745 1.54088)
(-0.000411749 0.00481745 1.54088)
(-0.00120113 0.00463101 1.52807)
(-0.00189418 0.00427975 1.50294)
(-0.00244999 0.00379843 1.46654)
(-0.00283305 0.00324221 1.41991)
(0.00317157 0.00360074 1.5405)
(0.00271902 0.00413866 1.58735)
(0.0020869 0.00459236 1.62356)
(0.00131557 0.00491939 1.64836)
(0.000449492 0.00509147 1.66094)
(-0.000449683 0.00509147 1.66094)
(-0.00131575 0.00491938 1.64836)
(-0.00208708 0.00459236 1.62355)
(-0.00271918 0.00413865 1.58734)
(-0.00317171 0.00360073 1.5405)
(0.00336874 0.00382161 1.64349)
(0.00285017 0.00424353 1.69065)
(0.00216267 0.00460312 1.72575)
(0.00135258 0.00485751 1.74945)
(0.000460283 0.00498977 1.76138)
(-0.000460485 0.00498977 1.76138)
(-0.00135278 0.00485751 1.74945)
(-0.00216286 0.00460312 1.72575)
(-0.00285035 0.00424352 1.69065)
(-0.0033689 0.0038216 1.64349)
(-5.16914e-07 8.5111e-08 0.122018)
(-1.5264e-06 5.44887e-07 0.128063)
(-1.69878e-06 3.55167e-07 0.132936)
(-1.10782e-06 3.23764e-08 0.136358)
(-4.01449e-07 -1.51183e-07 0.138122)
(3.94932e-07 -1.51683e-07 0.138122)
(1.10149e-06 3.09089e-08 0.136358)
(1.69278e-06 3.52797e-07 0.132936)
(1.52066e-06 5.41592e-07 0.128063)
(5.12189e-07 8.11324e-08 0.122018)
(3.76704e-05 4.53744e-05 0.353878)
(3.08819e-05 5.77065e-05 0.370416)
(2.30821e-05 6.74239e-05 0.383736)
(1.47309e-05 7.43981e-05 0.393075)
(5.04062e-06 7.81555e-05 0.397884)
(-5.06229e-06 7.81541e-05 0.397884)
(-1.47519e-05 7.43938e-05 0.393074)
(-2.3102e-05 6.74172e-05 0.383736)
(-3.09005e-05 5.76973e-05 0.370416)
(-3.76858e-05 4.53633e-05 0.353877)
(0.000129994 0.000152662 0.57052)
(0.000112487 0.000191541 0.595959)
(8.73145e-05 0.00022495 0.616388)
(5.61041e-05 0.00024986 0.630688)
(1.93327e-05 0.000263356 0.638046)
(-1.93708e-05 0.000263354 0.638046)
(-5.6141e-05 0.000249854 0.630688)
(-8.73492e-05 0.00022494 0.616388)
(-0.00011252 0.000191527 0.595959)
(-0.000130021 0.000152645 0.57052)
(0.000276 0.000321159 0.771784)
(0.000242354 0.000399158 0.804549)
(0.000189983 0.00046793 0.830753)
(0.000122268 0.000519618 0.849061)
(4.21977e-05 0.00054764 0.858471)
(-4.22532e-05 0.000547637 0.858471)
(-0.000122322 0.00051961 0.84906)
(-0.000190033 0.000467918 0.830753)
(-0.000242401 0.00039914 0.804549)
(-0.000276041 0.000321139 0.771783)
(0.00046362 0.000536323 0.957506)
(0.00040867 0.000659915 0.996039)
(0.000321121 0.000769803 1.0267)
(0.000206535 0.000852396 1.04807)
(7.12756e-05 0.000897098 1.05904)
(-7.13488e-05 0.000897095 1.05904)
(-0.000206606 0.000852387 1.04807)
(-0.000321188 0.000769789 1.0267)
(-0.000408732 0.000659896 0.996039)
(-0.000463673 0.0005363 0.957506)
(0.000674547 0.000776421 1.12752)
(0.000593923 0.000944274 1.17028)
(0.000466118 0.00109347 1.20411)
(0.00029916 0.00120518 1.22763)
(0.00010314 0.00126545 1.23969)
(-0.000103231 0.00126545 1.23969)
(-0.000299248 0.00120517 1.22763)
(-0.000466201 0.00109345 1.2041)
(-0.000594 0.000944254 1.17028)
(-0.000674614 0.000776398 1.12752)
(0.000886673 0.00101543 1.28162)
(0.000777401 0.00121801 1.32711)
(0.000607966 0.00139697 1.36287)
(0.000388912 0.00153011 1.38767)
(0.000133863 0.00160161 1.40036)
(-0.00013397 0.0016016 1.40036)
(-0.000389016 0.0015301 1.38767)
(-0.000608065 0.00139696 1.36287)
(-0.000777491 0.00121799 1.32711)
(-0.000886753 0.00101541 1.28162)
(0.00107692 0.00122605 1.41952)
(0.000938136 0.00144668 1.46635)
(0.000729774 0.00163942 1.50293)
(0.000464754 0.00178141 1.5282)
(0.0001596 0.00185717 1.54109)
(-0.000159723 0.00185716 1.54109)
(-0.000464874 0.0017814 1.5282)
(-0.000729888 0.00163941 1.50293)
(-0.000938241 0.00144667 1.46635)
(-0.00107702 0.00122603 1.41952)
(0.00122613 0.00138481 1.54072)
(0.00105879 0.0016026 1.58785)
(0.000817403 0.00178783 1.62431)
(0.000517384 0.00192235 1.6493)
(0.000177109 0.00199344 1.66199)
(-0.000177245 0.00199344 1.66199)
(-0.000517517 0.00192234 1.6493)
(-0.000817529 0.00178782 1.62431)
(-0.0010589 0.00160259 1.58785)
(-0.00122624 0.0013848 1.54072)
(0.00132154 0.00149326 1.64442)
(0.00112506 0.00166878 1.69195)
(0.000858197 0.00181792 1.72735)
(0.000538661 0.00192395 1.75128)
(0.000183605 0.00197923 1.76333)
(-0.000183751 0.00197923 1.76333)
(-0.000538802 0.00192395 1.75128)
(-0.000858332 0.00181792 1.72735)
(-0.00112519 0.00166878 1.69195)
(-0.00132165 0.00149325 1.64441)
(-1.30726e-08 7.34143e-07 0.121992)
(-8.53443e-07 1.10415e-06 0.128034)
(-1.05153e-06 9.30754e-07 0.132905)
(-7.64155e-07 6.39665e-07 0.136324)
(-2.84546e-07 4.53766e-07 0.138086)
(2.80106e-07 4.5339e-07 0.138086)
(7.59845e-07 6.38697e-07 0.136324)
(1.04744e-06 9.29102e-07 0.132905)
(8.49639e-07 1.10194e-06 0.128034)
(9.87277e-09 7.31516e-07 0.121992)
(1.04449e-05 1.38254e-05 0.353752)
(7.2679e-06 1.78415e-05 0.370279)
(4.77645e-06 2.03546e-05 0.383588)
(2.83588e-06 2.19247e-05 0.392918)
(9.29323e-07 2.27149e-05 0.397724)
(-9.44127e-07 2.27137e-05 0.397724)
(-2.85026e-06 2.1922e-05 0.392918)
(-4.79001e-06 2.03499e-05 0.383588)
(-7.28036e-06 1.78353e-05 0.370279)