/*--------------------------------*- C++ -*----------------------------------*\
| =========                 |                                                 |
| \\      /  F ield         | OpenFOAM: The Open Source CFD Toolbox           |
|  \\    /   O peration     | Version:  2106                                  |
|   \\  /    A nd           | Website:  www.openfoam.com                      |
|    \\/     M anipulation  |                                                 |
\*---------------------------------------------------------------------------*/
FoamFile
{
    version     2.0;
    format      ascii;
    arch        "LSB;label=32;scalar=64";
    class       surfaceScalarField;
    location    "0.96";
    object      phi;
}
// * * * * * * * * * * * * * * * * * * * * * * * * * * * * * * * * * * * * * //

dimensions      [0 3 -1 0 0 0 0];

oriented        oriented;

internalField   nonuniform List<scalar> 
29100
(
0.0011809
0.150394
0.0809172
-4.62813e-10
0.00145315
0.155272
0.088923
0.00124702
0.158691
0.0956107
0.000710191
0.160968
0.100397
7.54973e-11
0.162111
0.10289
-0.00071019
0.162111
0.10289
-0.00124702
0.160968
0.100397
-0.00145315
0.158691
0.0956107
-0.0011809
0.155272
0.088923
0.150394
0.0809172
-6.08289e-10
0.00236438
0.208242
0.155448
-4.83797e-10
0.00328423
0.212827
0.168972
0.00292928
0.215899
0.180029
0.00169456
0.217815
0.187848
-3.90889e-10
0.218755
0.191889
-0.00169456
0.218755
0.191889
-0.00292928
0.217815
0.187848
-0.00328423
0.215899
0.180029
-0.00236439
0.212827
0.168972
0.208242
0.155448
-1.59013e-09
0.00301627
0.219386
0.18467
-6.99032e-10
0.00426629
0.222312
0.199693
0.00382966
0.224219
0.211785
0.00221811
0.22526
0.22026
-1.08682e-09
0.225742
0.224616
-0.00221811
0.225742
0.224616
-0.00382966
0.22526
0.22026
-0.00426629
0.224219
0.211785
-0.00301627
0.222312
0.199693
0.219386
0.18467
-2.55949e-09
0.00344509
0.20617
0.191769
-7.32341e-10
0.00480651
0.207429
0.206929
0.00430557
0.208196
0.218978
0.00248931
0.208436
0.227364
-1.82448e-09
0.208508
0.231656
-0.00248932
0.208508
0.231656
-0.00430558
0.208436
0.227364
-0.00480651
0.208196
0.218978
-0.00344509
0.207429
0.206929
0.20617
0.191769
-3.52405e-09
0.00367447
0.18126
0.186402
-7.39765e-10
0.00505731
0.181237
0.201197
0.00451799
0.181138
0.212839
0.00260872
0.18081
0.220893
-2.55105e-09
0.180594
0.225002
-0.00260872
0.180594
0.225002
-0.00451799
0.18081
0.220893
-0.00505731
0.181138
0.212839
-0.00367447
0.181237
0.201197
0.18126
0.186402
-4.51311e-09
0.0037595
0.151934
0.173901
-6.82361e-10
0.00512339
0.15106
0.18818
0.00456757
0.150398
0.199325
0.00263586
0.149736
0.206995
-3.32021e-09
0.149359
0.210898
-0.00263587
0.149359
0.210898
-0.00456757
0.149736
0.206995
-0.0051234
0.150398
0.199325
-0.00375951
0.15106
0.18818
0.151934
0.173901
-5.60277e-09
0.00376766
0.122272
0.157398
-5.62473e-10
0.00509856
0.120917
0.17116
0.00453857
0.119941
0.181831
0.00261898
0.119135
0.189141
-4.09469e-09
0.1187
0.192851
-0.00261899
0.1187
0.192851
-0.00453858
0.119135
0.189141
-0.00509857
0.119941
0.181831
-0.00376767
0.120917
0.17116
0.122272
0.157398
-6.83501e-09
0.0037335
0.0944878
0.138723
-4.65381e-10
0.005045
0.0929104
0.152023
0.00449076
0.0918171
0.16228
0.00259258
0.0910128
0.169274
-4.94125e-09
0.0905967
0.172816
-0.00259259
0.0905967
0.172816
-0.00449077
0.0910128
0.169274
-0.00504501
0.0918171
0.16228
-0.00373351
0.0929104
0.152023
0.0944878
0.138723
-8.27788e-09
0.00370205
0.0696963
0.11893
-3.68886e-10
0.00502715
0.0680605
0.131833
0.0044763
0.0670216
0.141734
0.00258343
0.066334
0.148457
-6.09713e-09
0.0659937
0.151854
-0.00258345
0.0659937
0.151854
-0.00447631
0.066334
0.148457
-0.00502716
0.0670216
0.141734
-0.00370206
0.0680605
0.131833
0.0696963
0.11893
-9.95036e-09
0.00392245
0.0986208
-5.27669e-10
0.0481623
0.00521704
0.111186
0.0468681
0.00458897
0.120778
0.0460463
0.00262853
0.127263
0.0455493
-7.59868e-09
0.130531
0.0453056
-0.00262855
0.130531
0.0453056
-0.00458898
0.127263
0.0455493
-0.00521705
0.120778
0.0460463
-0.00392247
0.111186
0.0468681
0.0986208
-1.16653e-08
0.0481623
-0.000240338
0.036529
0.0446286
-2.56043e-10
-0.000242381
0.0397035
0.0492215
-0.000170346
0.0423861
0.0531526
-8.48222e-05
0.0443044
0.0560076
-5.21556e-10
0.0452968
0.0575088
8.48212e-05
0.0452968
0.0575088
0.000170345
0.0443044
0.0560076
0.00024238
0.0423861
0.0531526
0.000240337
0.0397035
0.0492215
0.036529
0.0446286
-1.10596e-09
6.4983e-05
0.0807012
0.111211
-1.97946e-10
0.000253386
0.0864924
0.121994
0.000302688
0.0913085
0.131057
0.00020273
0.0946831
0.13757
-2.35011e-09
0.0964165
0.140972
-0.000202735
0.0964165
0.140972
-0.000302692
0.0946831
0.13757
-0.00025339
0.0913085
0.131057
-6.49864e-05
0.0864924
0.121994
0.0807012
0.111211
-3.28614e-09
0.000614964
0.112213
0.152543
-2.60912e-10
0.00103339
0.118925
0.166841
0.00101106
0.124434
0.178681
0.000617907
0.12822
0.187117
-4.50265e-09
0.130149
0.191501
-0.000617915
0.130149
0.191501
-0.00101107
0.12822
0.187117
-0.0010334
0.124434
0.178681
-0.000614971
0.118925
0.166841
0.112213
0.152543
-5.53782e-09
0.00123444
0.128726
0.174022
-2.71589e-10
0.0018779
0.135122
0.190088
0.001767
0.140305
0.203219
0.00105533
0.143793
0.212503
-6.83592e-09
0.145554
0.217307
-0.00105535
0.145554
0.217307
-0.00176702
0.143793
0.212503
-0.00187791
0.140305
0.203219
-0.00123445
0.135122
0.190088
0.128726
0.174022
-7.79648e-09
0.00184031
0.13197
0.181317
-2.83709e-10
0.0026806
0.137361
0.198118
0.00247741
0.141661
0.211686
0.00146348
0.144486
0.221213
-9.11198e-09
0.145896
0.226123
-0.0014635
0.145896
0.226123
-0.00247743
0.144486
0.221213
-0.00268061
0.141661
0.211686
-0.00184033
0.137361
0.198118
0.13197
0.181317
-1.00205e-08
0.0023886
0.124973
0.178509
-2.37695e-10
0.00339486
0.129087
0.195447
0.00310512
0.132293
0.208983
0.00182292
0.134339
0.218425
-1.12979e-08
0.135343
0.223273
-0.00182294
0.135343
0.223273
-0.00310514
0.134339
0.218425
-0.00339488
0.132293
0.208983
-0.00238861
0.129087
0.195447
0.124973
0.178509
-1.22016e-08
0.00285616
0.110958
0.168557
-1.46411e-10
0.00400428
0.113789
0.18531
0.00364156
0.115915
0.198572
0.00213064
0.117223
0.207767
-1.34009e-08
0.117854
0.212472
-0.00213066
0.117854
0.212472
-0.00364159
0.117223
0.207767
-0.0040043
0.115915
0.198572
-0.00285618
0.113789
0.18531
0.110958
0.168557
-1.43375e-08
0.00323716
0.0928383
0.153606
-8.02218e-11
0.00451848
0.0945148
0.170017
0.00410043
0.0957128
0.1829
0.0023954
0.0964215
0.191781
-1.53438e-08
0.096757
0.196309
-0.00239543
0.096757
0.196309
-0.00410045
0.0964215
0.191781
-0.0045185
0.0957128
0.1829
-0.00323718
0.0945148
0.170017
0.0928383
0.153606
-1.63666e-08
0.0035674
0.0730103
0.135191
-2.27556e-11
0.00498661
0.0737246
0.151204
0.00451945
0.0742369
0.163677
0.00263601
0.0745364
0.172226
-1.70804e-08
0.0746781
0.176569
-0.00263604
0.0746781
0.176569
-0.00451948
0.0745364
0.172226
-0.00498664
0.0742369
0.163677
-0.00356742
0.0737246
0.151204
0.0730103
0.135191
-1.81276e-08
0.00399389
0.114403
-7.56547e-12
0.0532339
0.00553287
0.130028
0.0533434
0.00497536
0.142092
0.0534806
0.00288583
0.15031
0.0535786
-1.86142e-08
0.154471
0.0536243
-0.00288586
0.154471
0.0536243
-0.0049754
0.15031
0.0535786
-0.0055329
0.142092
0.0534806
-0.00399391
0.130028
0.0533434
0.114403
-1.94899e-08
0.0532339
3.93067e-05
0.00999807
0.0345912
-1.40188e-10
3.52804e-05
0.0110322
0.0381934
2.97342e-05
0.0119097
0.0412484
1.64816e-05
0.0125613
0.0434595
-8.46117e-10
0.0129046
0.0446207
-1.64833e-05
0.0129046
0.0446207
-2.97357e-05
0.0125613
0.0434595
-3.52818e-05
0.0119097
0.0412484
-3.93081e-05
0.0110322
0.0381934
0.00999807
0.0345912
-1.28667e-09
0.00028155
0.0303181
0.0906097
-1.84885e-10
0.000382387
0.0330294
0.0998962
0.000341783
0.0352981
0.107709
0.000199381
0.0369345
0.113339
-3.35997e-09
0.0377894
0.116286
-0.000199387
0.0377894
0.116286
-0.00034179
0.0369345
0.113339
-0.000382393
0.0352981
0.107709
-0.000281554
0.0330294
0.0998962
0.0303181
0.0906097
-4.08956e-09
0.000601368
0.0512404
0.131019
-2.16177e-10
0.000853358
0.0552459
0.144373
0.000773153
0.0585536
0.155506
0.000453187
0.0608863
0.163485
-6.27417e-09
0.0620947
0.167649
-0.000453199
0.0620947
0.167649
-0.000773164
0.0608863
0.163485
-0.000853368
0.0585536
0.155506
-0.000601377
0.0552459
0.144373
0.0512404
0.131019
-7.03501e-09
0.000969039
0.067065
0.157229
-1.77343e-10
0.00139077
0.0716483
0.173264
0.00127032
0.0753874
0.186505
0.000746057
0.0779731
0.19594
-9.46723e-09
0.0793005
0.200848
-0.000746075
0.0793005
0.200848
-0.00127033
0.0779731
0.19594
-0.00139078
0.0753874
0.186505
-0.000969052
0.0716483
0.173264
0.067065
0.157229
-1.00505e-08
0.00135945
0.0757935
0.171229
-1.65496e-10
0.00194735
0.0802951
0.188883
0.00178313
0.0839191
0.203318
0.0010475
0.0863773
0.213545
-1.27037e-08
0.0876267
0.218845
-0.00104752
0.0876267
0.218845
-0.00178316
0.0863773
0.213545
-0.00194737
0.0839191
0.203318
-0.00135947
0.0802951
0.188883
0.0757935
0.171229
-1.30407e-08
0.0017522
0.0774407
0.17511
-1.97474e-10
0.00249298
0.0813926
0.193609
0.00228174
0.0845198
0.208593
0.00133967
0.0865985
0.219146
-1.5814e-08
0.0876435
0.224596
-0.0013397
0.0876435
0.224596
-0.00228177
0.0865985
0.219146
-0.002493
0.0845198
0.208593
-0.00175222
0.0813926
0.193609
0.0774407
0.17511
-1.59157e-08
0.00212396
0.0730775
0.170796
-2.40784e-10
0.0030034
0.0762166
0.189607
0.00274618
0.0786433
0.204706
0.00161142
0.0802229
0.215278
-1.86992e-08
0.081008
0.220718
-0.00161146
0.081008
0.220718
-0.00274621
0.0802229
0.215278
-0.00300343
0.0786433
0.204706
-0.00212399
0.0762166
0.189607
0.0730775
0.170796
-1.85835e-08
0.00245861
0.0642557
0.159969
-2.96858e-10
0.00346853
0.0664841
0.178739
0.0031698
0.0681637
0.193678
0.00185911
0.0692374
0.204077
-2.12697e-08
0.0697663
0.20941
-0.00185915
0.0697663
0.20941
-0.00316984
0.0692375
0.204077
-0.00346856
0.0681637
0.193678
-0.00245864
0.0664841
0.178739
0.0642557
0.159969
-2.09586e-08
0.00276865
0.0526371
0.144041
-5.03827e-10
0.0039042
0.053989
0.162563
0.00356226
0.0550019
0.177181
0.00208634
0.055647
0.187292
-2.34002e-08
0.0559643
0.192457
-0.00208639
0.0559643
0.192457
-0.00356231
0.055647
0.187292
-0.00390424
0.0550019
0.177181
-0.00276868
0.053989
0.162563
0.0526371
0.144041
-2.29659e-08
0.0031121
0.124179
-8.62023e-10
0.0397494
0.00435404
0.142371
0.0404041
0.00395019
0.156569
0.0409287
0.00230418
0.166322
0.0412809
-2.48711e-08
0.171284
0.041455
-0.00230423
0.171284
0.041455
-0.00395023
0.166322
0.0412809
-0.00435407
0.156569
0.0409287
-0.00311213
0.142371
0.0404041
0.124179
-2.45017e-08
0.0397494
-3.16237e-05
0.00408505
0.0305378
-1.37354e-10
-4.51588e-05
0.0044984
0.0337085
-3.63967e-05
0.00484915
0.0363905
-2.00606e-05
0.00510995
0.0383332
-8.95536e-10
0.00524657
0.0393541
2.00588e-05
0.00524657
0.0393541
3.6395e-05
0.00510995
0.0383332
4.51572e-05
0.00484915
0.0363905
3.16222e-05
0.0044984
0.0337085
0.00408505
0.0305378
-1.35182e-09
1.02323e-05
0.0126864
0.0819981
-2.03284e-10
1.76391e-05
0.0139015
0.0904857
2.20506e-05
0.0149312
0.0976227
1.57086e-05
0.0156817
0.102773
-3.49347e-09
0.0160753
0.105474
-1.57156e-05
0.0160753
0.105474
-2.2057e-05
0.0156817
0.102773
-1.76447e-05
0.0149312
0.0976226
-1.02372e-05
0.0139015
0.0904857
0.0126864
0.0819981
-4.4076e-09
0.000124061
0.0225854
0.120996
-2.77788e-10
0.000188128
0.0246038
0.133606
0.000180656
0.0263029
0.144141
0.000110062
0.0275226
0.151715
-6.56481e-09
0.0281594
0.155675
-0.000110075
0.0281594
0.155675
-0.000180668
0.0275226
0.151715
-0.000188138
0.0263029
0.144141
-0.00012407
0.0246039
0.133606
0.0225854
0.120996
-7.68581e-09
0.000295232
0.0313183
0.1482
-3.30956e-10
0.000440222
0.0338898
0.163833
0.000415006
0.0360336
0.1768
0.000248831
0.0375499
0.186079
-9.97194e-09
0.0383367
0.190919
-0.000248851
0.0383367
0.190919
-0.000415024
0.0375499
0.186079
-0.000440238
0.0360336
0.1768
-0.000295245
0.0338898
0.163833
0.0313183
0.1482
-1.09846e-08
0.00050809
0.0373591
0.164681
-3.77947e-10
0.000746872
0.0401419
0.182392
0.000698633
0.0424323
0.196968
0.000416179
0.0440277
0.207349
-1.34898e-08
0.0448493
0.212748
-0.000416205
0.0448493
0.212748
-0.000698657
0.0440277
0.207349
-0.000746893
0.0424323
0.196968
-0.000508107
0.0401419
0.182392
0.0373591
0.164681
-1.42067e-08
0.00074656
0.040053
0.171669
-4.58733e-10
0.00108396
0.042725
0.190688
0.00100849
0.0448869
0.206214
0.000598454
0.0463684
0.217215
-1.69162e-08
0.0471249
0.222919
-0.000598487
0.0471249
0.222919
-0.00100852
0.0463685
0.217215
-0.00108399
0.0448869
0.206214
-0.000746582
0.042725
0.190688
0.040053
0.171669
-1.72658e-08
0.00099331
0.039417
0.170439
-6.17959e-10
0.00142971
0.041732
0.190163
0.00132524
0.0435645
0.206132
0.000784443
0.0447992
0.217388
-2.00963e-08
0.0454239
0.223204
-0.000784482
0.0454239
0.223204
-0.00132527
0.0447992
0.217388
-0.00142974
0.0435645
0.206132
-0.000993335
0.041732
0.190163
0.039417
0.170439
-2.00588e-08
0.00123531
0.0359288
0.162222
-8.60279e-10
0.00177071
0.0377345
0.182201
0.00163707
0.0391307
0.198246
0.00096711
0.0400568
0.209489
-2.28705e-08
0.0405216
0.215279
-0.000967155
0.0405216
0.215279
-0.00163711
0.0400568
0.209489
-0.00177074
0.0391307
0.198246
-0.00123534
0.0377345
0.182201
0.0359288
0.162222
-2.24707e-08
0.00147672
0.0303321
0.148161
-1.19674e-09
0.0021093
0.0315763
0.168089
0.00194252
0.0325231
0.183955
0.0011443
0.0331454
0.195002
-2.5099e-08
0.0334562
0.200667
-0.00114434
0.0334562
0.200667
-0.00194257
0.0331454
0.195002
-0.00210934
0.0325231
0.183955
-0.00147675
0.0315763
0.168089
0.0303322
0.148161
-2.43815e-08
0.00173202
0.129295
-1.57871e-09
0.0234839
0.00245583
0.14902
0.0242031
0.00224875
0.16453
0.0247693
0.00131908
0.175247
0.0251505
-2.65925e-08
0.180719
0.0253409
-0.00131913
0.180719
0.0253409
-0.0022488
0.175247
0.0251505
-0.00245587
0.16453
0.0247693
-0.00173205
0.14902
0.0242031
0.129295
-2.56617e-08
0.0234839
2.1092e-06
0.00133739
0.0291983
-1.11416e-10
-2.71345e-07
0.00148501
0.0322259
1.3142e-07
0.00161338
0.0347767
1.46463e-07
0.00171137
0.0366219
-8.1772e-10
0.00176363
0.0375906
-1.48047e-07
0.00176363
0.0375906
-1.32961e-07
0.00171137
0.0366218
2.69897e-07
0.00161338
0.0347767
-2.11053e-06
0.00148501
0.0322259
0.00133739
0.0291983
-1.28328e-09
3.09398e-05
0.0047989
0.0785056
-2.01078e-10
4.00129e-05
0.00529672
0.0866649
3.686e-05
0.0057244
0.0935148
2.18672e-05
0.00604213
0.0984576
-3.20755e-09
0.00621047
0.101049
-2.18735e-05
0.00621047
0.101049
-3.68659e-05
0.00604213
0.0984576
-4.00183e-05
0.00572441
0.0935148
-3.09446e-05
0.00529672
0.0866649
0.00479891
0.0785056
-4.25908e-09
8.63383e-05
0.00925968
0.116449
-3.18548e-10
0.000122393
0.0101639
0.128703
0.000112983
0.0109338
0.138941
6.70665e-05
0.0114955
0.146307
-6.05153e-09
0.0117915
0.150161
-6.70784e-05
0.0117915
0.150161
-0.000112994
0.0114955
0.146307
-0.000122403
0.0109338
0.138941
-8.63469e-05
0.0101639
0.128703
0.00925969
0.116449
-7.40571e-09
0.00016806
0.0136086
0.143683
-4.3474e-10
0.000244048
0.0148491
0.159072
0.000226672
0.0158954
0.171855
0.000134622
0.0166474
0.181019
-9.23526e-09
0.0170412
0.185804
-0.00013464
0.0170412
0.185804
-0.000226689
0.0166474
0.181019
-0.000244063
0.0158954
0.171855
-0.000168072
0.0148491
0.159072
0.0136086
0.143683
-1.05891e-08
0.000273139
0.0170102
0.161006
-5.75661e-10
0.000398137
0.0184422
0.178674
0.000370544
0.019636
0.193255
0.000220012
0.0204817
0.203666
-1.25719e-08
0.0209214
0.209088
-0.000220037
0.0209214
0.209088
-0.000370566
0.0204817
0.203666
-0.000398157
0.019636
0.193255
-0.000273155
0.0184422
0.178674
0.0170103
0.161006
-1.36944e-08
0.000396183
0.0189644
0.169319
-7.62323e-10
0.000575634
0.0204205
0.188531
0.000535546
0.0216165
0.204274
0.000317732
0.0224513
0.215463
-1.58638e-08
0.0228818
0.221276
-0.000317763
0.0228818
0.221276
-0.000535574
0.0224513
0.215463
-0.000575659
0.0216165
0.204274
-0.000396203
0.0204205
0.188531
0.0189644
0.169319
-1.66182e-08
0.000529686
0.0192948
0.169579
-1.02151e-09
0.000766259
0.0206243
0.189723
0.000712055
0.0216962
0.206107
0.00042203
0.0224329
0.217696
-1.89498e-08
0.0228096
0.223698
-0.000422067
0.0228096
0.223698
-0.000712089
0.0224329
0.217696
-0.000766289
0.0216962
0.206107
-0.00052971
0.0206244
0.189723
0.0192948
0.169579
-1.92533e-08
0.000666889
0.0180958
0.162754
-1.33519e-09
0.000961873
0.0191877
0.183343
0.000892276
0.0200503
0.199961
0.000528095
0.0206342
0.211652
-2.16478e-08
0.0209303
0.217687
-0.000528137
0.0209303
0.217687
-0.000892314
0.0206342
0.211652
-0.000961906
0.0200503
0.199961
-0.000666916
0.0191877
0.183343
0.0180959
0.162754
-2.1479e-08
0.000807761
0.0156577
0.149791
-1.72614e-09
0.00115952
0.0164554
0.17047
0.00107134
0.0170735
0.18702
0.000632393
0.0174865
0.198588
-2.37988e-08
0.0176945
0.204535
-0.000632439
0.0176945
0.204535
-0.00107138
0.0174865
0.198588
-0.00115956
0.0170735
0.18702
-0.00080779
0.0164554
0.17047
0.0156577
0.149791
-2.31802e-08
0.000946915
0.131607
-2.15015e-09
0.0123986
0.00135137
0.152181
0.0128907
0.00124389
0.168433
0.0132774
0.000732069
0.179705
0.0135397
-2.52412e-08
0.185474
0.0136718
-0.000732118
0.185474
0.0136718
-0.00124393
0.179705
0.0135397
-0.0013514
0.168433
0.0132774
-0.000946945
0.152181
0.0128908
0.131607
-2.42602e-08
0.0123986
-5.57688e-06
0.000584002
0.0286199
-1.04026e-10
-8.31329e-06
0.00064247
0.0315861
-6.58333e-06
0.00069193
0.034083
-3.62657e-06
0.000729529
0.0358894
-6.501e-10
0.000749292
0.0368377
3.62524e-06
0.000749292
0.0368377
6.58207e-06
0.000729529
0.0358894
8.31211e-06
0.00069193
0.034083
5.5757e-06
0.000642471
0.0315861
0.000584003
0.0286199
-1.1339e-09
-8.41624e-07
0.0020348
0.0770557
-1.40799e-10
-1.8618e-06
0.00224165
0.0850667
-5.94627e-07
0.0024179
0.0917875
1.90774e-07
0.00254892
0.0966374
-2.62991e-09
0.00261834
0.0991797
-1.95527e-07
0.00261834
0.0991797
5.89825e-07
0.00254893
0.0966374
1.85681e-06
0.0024179
0.0917875
8.37588e-07
0.00224165
0.0850667
0.0020348
0.0770557
-3.75803e-09
1.78089e-05
0.00395791
0.114508
-2.54834e-10
2.63492e-05
0.00435275
0.126583
2.58437e-05
0.00468923
0.136671
1.59721e-05
0.00493611
0.14393
-5.10907e-09
0.00506658
0.147729
-1.59821e-05
0.00506659
0.147729
-2.58531e-05
0.00493611
0.14393
-2.63576e-05
0.00468923
0.136671
-1.78162e-05
0.00435275
0.126583
0.00395792
0.114508
-6.54935e-09
5.10402e-05
0.00593214
0.141658
-4.07218e-10
7.59843e-05
0.00650073
0.156899
7.23322e-05
0.00698273
0.169566
4.36694e-05
0.0073321
0.178652
-7.87509e-09
0.00751589
0.183398
-4.36848e-05
0.00751589
0.183398
-7.23466e-05
0.00733211
0.178652
-7.5997e-05
0.00698274
0.169566
-5.1051e-05
0.00650074
0.156899
0.00593215
0.141658
-9.38506e-09
9.76213e-05
0.00758508
0.159255
-6.06785e-10
0.000144611
0.00827212
0.176856
0.000136555
0.00884912
0.191397
8.18627e-05
0.00926213
0.20179
-1.07961e-08
0.00947809
0.207208
-8.18838e-05
0.0094781
0.207208
-0.000136574
0.00926213
0.20179
-0.000144628
0.00884913
0.191397
-9.76356e-05
0.00827213
0.176856
0.00758509
0.159255
-1.21518e-08
0.000155409
0.00865069
0.168098
-8.54934e-10
0.000228606
0.00937991
0.18735
0.000214912
0.00998423
0.203152
0.000128374
0.010411
0.214401
-1.37186e-08
0.0106326
0.22025
-0.000128401
0.0106326
0.22025
-0.000214937
0.010411
0.214401
-0.000228628
0.00998424
0.203152
-0.000155426
0.00937992
0.18735
0.0086507
0.168098
-1.47539e-08
0.00022116
0.00899204
0.169016
-1.16857e-09
0.00032336
0.00968546
0.189315
0.000303019
0.0102503
0.205861
0.000180558
0.0106436
0.217586
-1.64907e-08
0.0108462
0.223665
-0.00018059
0.0108462
0.223665
-0.000303049
0.0106436
0.217586
-0.000323386
0.0102504
0.205861
-0.000221181
0.00968548
0.189315
0.00899205
0.169016
-1.70892e-08
0.000291836
0.00859896
0.162855
-1.52943e-09
0.000424911
0.0091918
0.183704
0.000396913
0.00966558
0.200574
0.000235924
0.00999053
0.212466
-1.89399e-08
0.0101565
0.218612
-0.000235961
0.0101565
0.218612
-0.000396947
0.00999053
0.212466
-0.00042494
0.00966559
0.200574
-0.000291859
0.00919181
0.183704
0.00859897
0.162855
-1.90496e-08
0.000367597
0.00756756
0.150455
-1.96379e-09
0.00053153
0.0080202
0.171477
0.000493755
0.0083745
0.188349
0.000292432
0.00861398
0.200166
-2.09087e-08
0.0087353
0.206249
-0.000292473
0.0087353
0.206249
-0.000493792
0.00861398
0.200166
-0.000531562
0.0083745
0.188349
-0.000367622
0.00802021
0.171477
0.00756757
0.150455
-2.05418e-08
0.000443546
0.132653
-2.42004e-09
0.00607806
0.000637582
0.153636
0.0063713
0.000590011
0.170252
0.00660284
0.00034837
0.1818
0.00676082
-2.22204e-08
0.187717
0.00684074
-0.000348413
0.187717
0.00684074
-0.00059005
0.1818
0.00676083
-0.000637615
0.170252
0.00660285
-0.000443572
0.153635
0.00637131
0.132653
-2.14954e-08
0.00607806
-8.44975e-07
0.000190414
0.0284303
-1.24168e-10
-1.63871e-06
0.00021091
0.031376
-1.19088e-06
0.000228741
0.0338538
-6.35507e-07
0.000242737
0.0356461
-4.89793e-10
0.000250204
0.0365868
6.34515e-07
0.000250204
0.0365868
1.18991e-06
0.000242737
0.0356461
1.63776e-06
0.000228742
0.0338538
8.44008e-07
0.00021091
0.031376
0.000190415
0.0284303
-9.21006e-10
1.85719e-06
0.000743175
0.0765011
-2.66056e-10
1.98446e-06
0.000822956
0.0844546
2.14964e-06
0.000892044
0.0911241
1.40773e-06
0.00094432
0.0959366
-2.06041e-09
0.000972224
0.0984591
-1.4118e-06
0.000972224
0.0984591
-2.1535e-06
0.000944321
0.0959366
-1.988e-06
0.000892045
0.0911241
-1.86042e-06
0.000822958
0.0844545
0.000743177
0.0765011
-3.07672e-09
1.00135e-05
0.00152807
0.113713
-3.97181e-10
1.40626e-05
0.0016889
0.125713
1.33535e-05
0.00182751
0.135736
8.09078e-06
0.00193055
0.142949
-4.04369e-09
0.00198537
0.146724
-8.09869e-06
0.00198537
0.146724
-1.3361e-05
0.00193055
0.142949
-1.40694e-05
0.00182751
0.135736
-1.00195e-05
0.0016889
0.125713
0.00152807
0.113713
-5.4137e-09
2.42749e-05
0.00237661
0.140785
-5.34484e-10
3.53702e-05
0.00261819
0.155959
3.33174e-05
0.00282505
0.16857
1.99899e-05
0.00297676
0.177619
-6.31169e-09
0.00305708
0.182347
-2.00022e-05
0.00305708
0.182347
-3.33289e-05
0.00297676
0.177619
-3.53805e-05
0.00282505
0.16857
-2.42838e-05
0.0026182
0.155959
0.00237662
0.140785
-7.80511e-09
4.47116e-05
0.00312774
0.158459
-7.03265e-10
6.56665e-05
0.00343042
0.176022
6.17565e-05
0.0036872
0.190538
3.69362e-05
0.00387314
0.200919
-8.73369e-09
0.003971
0.206331
-3.69532e-05
0.003971
0.206331
-6.17723e-05
0.00387315
0.200919
-6.56804e-05
0.00368721
0.190538
-4.47234e-05
0.00343043
0.176022
0.00312775
0.158459
-1.01449e-08
7.07601e-05
0.00365402
0.167501
-9.18807e-10
0.000103874
0.00398581
0.186761
9.75598e-05
0.00426376
0.202582
5.82452e-05
0.00446239
0.213851
-1.11782e-08
0.00456619
0.219713
-5.8267e-05
0.00456619
0.219713
-9.75799e-05
0.00446239
0.213851
-0.000103891
0.00426377
0.202582
-7.07747e-05
0.00398582
0.186761
0.00365403
0.167501
-1.23495e-08
0.000101227
0.00387753
0.168692
-1.20566e-09
0.000148196
0.00420245
0.189051
0.000138968
0.00447028
0.205664
8.28377e-05
0.00465898
0.217445
-1.35239e-08
0.00475682
0.223557
-8.2864e-05
0.00475682
0.223557
-0.000138993
0.00465899
0.217445
-0.000148217
0.00447029
0.205664
-0.000101244
0.00420246
0.189051
0.00387754
0.168692
-1.43324e-08
0.000134819
0.00377535
0.162822
-1.54474e-09
0.000196788
0.00406108
0.183783
0.000184066
0.00429224
0.200765
0.000109492
0.00445259
0.212747
-1.56173e-08
0.00453498
0.218944
-0.000109523
0.00453499
0.218944
-0.000184093
0.0044526
0.212747
-0.000196812
0.00429225
0.200765
-0.000134839
0.00406109
0.183783
0.00377536
0.162822
-1.59986e-08
0.00017128
0.00337574
0.150683
-1.93184e-09
0.000248222
0.00360046
0.171861
0.000230942
0.00377795
0.188881
0.000136921
0.00389899
0.200814
-1.7318e-08
0.0039606
0.20696
-0.000136955
0.00396061
0.20696
-0.000230973
0.00389899
0.200814
-0.000248249
0.00377796
0.188881
-0.0001713
0.00360047
0.171861
0.00337575
0.150683
-1.72651e-08
0.000206054
0.13307
-2.29392e-09
0.0027527
0.000297615
0.154242
0.00290217
0.000276364
0.171031
0.00302049
0.000163534
0.18271
0.0031016
-1.84909e-08
0.188698
0.00314279
-0.00016357
0.188698
0.00314279
-0.000276397
0.18271
0.0031016
-0.000297643
0.171031
0.00302049
-0.000206076
0.154242
0.00290217
0.13307
-1.8077e-08
0.0027527
-1.37942e-06
7.77173e-05
0.028354
-7.58022e-11
-1.98561e-06
8.53283e-05
0.0312913
-1.59345e-06
9.18408e-05
0.0337616
-8.78774e-07
9.69124e-05
0.0355484
-3.4683e-10
9.95919e-05
0.0364864
8.78078e-07
9.9592e-05
0.0364864
1.59276e-06
9.69127e-05
0.0355484
1.98492e-06
9.18412e-05
0.0337616
1.37873e-06
8.53288e-05
0.0312913
7.77177e-05
0.028354
-7.02733e-10
-1.61113e-06
0.00029263
0.0762878
-1.48383e-10
-2.42316e-06
0.000323247
0.0842174
-1.93761e-06
0.000349695
0.0908657
-1.02642e-06
0.000369753
0.0956628
-1.51115e-09
0.000380449
0.0981772
1.02343e-06
0.00038045
0.0981772
1.93474e-06
0.000369754
0.0956628
2.42044e-06
0.000349697
0.0908657
1.6086e-06
0.000323248
0.0842174
0.000292631
0.0762878
-2.391e-09
8.77429e-07
0.000602732
0.113402
-2.72259e-10
1.15914e-06
0.000666801
0.12537
1.3662e-06
0.000722035
0.135363
9.55165e-07
0.000763306
0.142556
-3.02434e-09
0.000785314
0.14632
-9.611e-07
0.000785315
0.14632
-1.37181e-06
0.000763308
0.142556
-1.16421e-06
0.000722037
0.135363
-8.81649e-07
0.000666804
0.12537
0.000602735
0.113402
-4.17925e-09
6.05573e-06
0.000949344
0.140433
-4.27149e-10
8.95735e-06
0.00104877
0.155574
8.6805e-06
0.00113415
0.168158
5.31683e-06
0.00119717
0.177189
-4.7909e-09
0.00123065
0.181907
-5.3262e-06
0.00123065
0.181907
-8.68927e-06
0.00119718
0.177189
-8.96526e-06
0.00113416
0.168158
-6.06254e-06
0.00104877
0.155574
0.000949349
0.140433
-6.1236e-09
1.4171e-05
0.00126883
0.158126
-6.13142e-10
2.10145e-05
0.0013972
0.175667
2.00049e-05
0.00150656
0.190167
1.20689e-05
0.00158632
0.200537
-6.70479e-09
0.00162846
0.205945
-1.2082e-05
0.00162846
0.205945
-2.0017e-05
0.00158632
0.200537
-2.10253e-05
0.00150657
0.190167
-1.41801e-05
0.0013972
0.175667
0.00126883
0.158126
-8.02135e-09
2.49866e-05
0.00150579
0.167239
-8.33691e-10
3.69597e-05
0.00165047
0.186496
3.49786e-05
0.00177229
0.202318
2.09918e-05
0.00186
0.213591
-8.65552e-09
0.00190603
0.219457
-2.10087e-05
0.00190603
0.219457
-3.49942e-05
0.00186
0.213591
-3.69734e-05
0.0017723
0.202318
-2.4998e-05
0.00165047
0.186496
0.00150579
0.167239
-9.81236e-09
3.80618e-05
0.00162196
0.168537
-1.10177e-09
5.61094e-05
0.00176737
0.188916
5.29253e-05
0.00188795
0.205551
3.16677e-05
0.00197355
0.217353
-1.05449e-08
0.00201812
0.223477
-3.16882e-05
0.00201812
0.223477
-5.29442e-05
0.00197355
0.217353
-5.61258e-05
0.00188795
0.205551
-3.80752e-05
0.00176738
0.188916
0.00162197
0.168537
-1.14352e-08
5.29131e-05
0.00160095
0.162791
-1.39881e-09
7.77262e-05
0.00173206
0.183793
7.305e-05
0.00183883
0.200819
4.35821e-05
0.00191344
0.212837
-1.22534e-08
0.00195193
0.219053
-4.3606e-05
0.00195193
0.219053
-7.30719e-05
0.00191344
0.212837
-7.7745e-05
0.00183883
0.200819
-5.29283e-05
0.00173207
0.183793
0.00160096
0.16279
-1.28136e-08
6.95106e-05
0.00144867
0.150766
-1.72732e-09
0.000101228
0.00155448
0.172007
9.45262e-05
0.00163856
0.189088
5.61701e-05
0.00169625
0.201069
-1.36677e-08
0.00172573
0.207242
-5.61966e-05
0.00172573
0.207242
-9.45504e-05
0.00169626
0.201069
-0.000101248
0.00163856
0.189088
-6.95272e-05
0.00155449
0.172007
0.00144868
0.150766
-1.38778e-08
8.56597e-05
0.13324
-2.0455e-09
0.00119295
0.000124355
0.154493
0.00126524
0.000115914
0.171355
0.0013227
6.87461e-05
0.183091
0.00136225
-1.46732e-08
0.18911
0.00138239
-6.87746e-05
0.18911
0.00138239
-0.00011594
0.183091
0.00136225
-0.000124377
0.171355
0.00132271
-8.56771e-05
0.154493
0.00126524
0.13324
-1.45783e-08
0.00119295
-3.98276e-07
2.03878e-05
0.028334
-8.002e-11
-6.12476e-07
2.25819e-05
0.0312689
-4.90655e-07
2.45831e-05
0.0337369
-2.71801e-07
2.62277e-05
0.035522
-2.28021e-10
2.71143e-05
0.036459
2.71342e-07
2.71144e-05
0.036459
4.90194e-07
2.62279e-05
0.035522
6.1201e-07
2.45834e-05
0.0337369
3.97778e-07
2.25822e-05
0.0312689
2.03881e-05
0.028334
-5.07639e-10
-5.07696e-07
9.12446e-05
0.0762174
-1.93406e-10
-8.62736e-07
0.000101569
0.0841388
-7.17238e-07
0.000110751
0.0907794
-3.90963e-07
0.000117894
0.0955708
-1.0502e-09
0.000121747
0.0980822
3.88879e-07
0.000121747
0.0980822
7.15223e-07
0.000117894
0.0955708
8.60824e-07
0.000110752
0.0907794
5.05829e-07
0.00010157
0.0841388
9.12457e-05
0.0762174
-1.75916e-09
3.56305e-07
0.0002026
0.113291
-2.98025e-10
3.36747e-07
0.000225708
0.125245
3.70855e-07
0.000245993
0.135228
2.57831e-07
0.000261417
0.142412
-2.15078e-09
0.000269714
0.146172
-2.62061e-07
0.000269714
0.146172
-3.74875e-07
0.000261418
0.142412
-3.40385e-07
0.000245995
0.135228
-3.59418e-07
0.00022571
0.125245
0.000202602
0.113291
-3.10134e-09
2.2844e-06
0.000333979
0.140299
-4.1852e-10
3.22512e-06
0.000371439
0.155427
3.07039e-06
0.000404058
0.168
1.86512e-06
0.000428476
0.177023
-3.46427e-09
0.000441543
0.181737
-1.8719e-06
0.000441544
0.181737
-3.07676e-06
0.000428478
0.177023
-3.23088e-06
0.000404061
0.168
-2.28943e-06
0.000371443
0.155427
0.000333983
0.140299
-4.58322e-09
5.43562e-06
0.000461134
0.157993
-5.59047e-10
7.92165e-06
0.000511141
0.175525
7.485e-06
0.000554258
0.190017
4.4989e-06
0.000586094
0.200383
-4.90897e-09
0.000603028
0.205788
-4.50849e-06
0.000603029
0.205788
-7.49394e-06
0.000586097
0.200383
-7.92961e-06
0.000554261
0.190017
-5.44241e-06
0.000511146
0.175525
0.000461139
0.157993
-6.04955e-09
9.7667e-06
0.000561253
0.167129
-7.24855e-10
1.43511e-05
0.000619182
0.186383
1.354e-05
0.000668502
0.202205
8.11284e-06
0.000704421
0.213479
-6.40094e-09
0.000723389
0.219344
-8.12532e-06
0.00072339
0.219344
-1.35515e-05
0.000704423
0.213479
-1.43613e-05
0.000668507
0.202205
-9.77522e-06
0.000619188
0.186383
0.000561259
0.167129
-7.45038e-09
1.51352e-05
0.00061709
0.168466
-9.25525e-10
2.22762e-05
0.000676707
0.188852
2.09933e-05
0.000726668
0.205495
1.25551e-05
0.000762515
0.217304
-7.8659e-09
0.000781287
0.223432
-1.25704e-05
0.000781288
0.223432
-2.10074e-05
0.000762518
0.217303
-2.22885e-05
0.000726673
0.205495
-1.51454e-05
0.000676713
0.188852
0.000617096
0.168466
-8.7363e-09
2.13569e-05
0.000619621
0.162767
-1.14752e-09
3.13869e-05
0.000674563
0.183786
2.95021e-05
0.00071973
0.200828
1.76024e-05
0.000751585
0.21286
-9.21285e-09
0.000768098
0.219084
-1.76203e-05
0.000768099
0.219084
-2.95186e-05
0.000751588
0.21286
-3.14011e-05
0.000719734
0.200827
-2.13684e-05
0.000674568
0.183786
0.000619627
0.162767
-9.84833e-09
2.83564e-05
0.000568996
0.150788
-1.38997e-09
4.13348e-05
0.000614311
0.172054
3.86269e-05
0.000650525