/*--------------------------------*- C++ -*----------------------------------*\
| =========                 |                                                 |
| \\      /  F ield         | OpenFOAM: The Open Source CFD Toolbox           |
|  \\    /   O peration     | Version:  2106                                  |
|   \\  /    A nd           | Website:  www.openfoam.com                      |
|    \\/     M anipulation  |                                                 |
\*---------------------------------------------------------------------------*/
FoamFile
{
    version     2.0;
    format      ascii;
    arch        "LSB;label=32;scalar=64";
    class       surfaceScalarField;
    location    "1";
    object      phi;
}
// * * * * * * * * * * * * * * * * * * * * * * * * * * * * * * * * * * * * * //

dimensions      [0 3 -1 0 0 0 0];

oriented        oriented;

internalField   nonuniform List<scalar> 
29100
(
0.00119026
0.151579
0.0815643
-1.44023e-10
0.00146465
0.156494
0.089634
0.00125689
0.15994
0.0963752
0.000715806
0.162235
0.1012
-1.16856e-09
0.163387
0.103713
-0.000715808
0.163387
0.103713
-0.00125689
0.162235
0.1012
-0.00146465
0.15994
0.0963752
-0.00119026
0.156494
0.089634
0.151579
0.0815643
-1.49514e-09
0.00238302
0.209876
0.156688
-1.93089e-10
0.00331009
0.214496
0.170318
0.00295233
0.217591
0.181463
0.00170789
0.219522
0.189345
-3.38414e-09
0.220469
0.193418
-0.0017079
0.220469
0.193418
-0.00295234
0.219522
0.189345
-0.0033101
0.217591
0.181463
-0.00238303
0.214496
0.170318
0.209876
0.156688
-4.13985e-09
0.00303993
0.2211
0.18614
-2.95603e-10
0.00429974
0.224048
0.201281
0.00385968
0.225969
0.213469
0.00223549
0.227017
0.222012
-5.53141e-09
0.227504
0.226403
-0.0022355
0.227504
0.226403
-0.00385969
0.227017
0.222012
-0.00429975
0.225969
0.213469
-0.00303994
0.224048
0.201281
0.2211
0.18614
-6.62258e-09
0.00347199
0.207775
0.193293
-4.15393e-10
0.00484403
0.209042
0.208573
0.00433917
0.209814
0.220718
0.00250873
0.210055
0.22917
-7.68793e-09
0.210127
0.233496
-0.00250874
0.210127
0.233496
-0.00433918
0.210055
0.22917
-0.00484404
0.209814
0.220718
-0.003472
0.209042
0.208573
0.207775
0.193293
-8.92545e-09
0.00370303
0.182665
0.187881
-5.22489e-10
0.0050966
0.18264
0.202793
0.00455306
0.18254
0.214527
0.00262896
0.182207
0.222644
-9.87554e-09
0.18199
0.226786
-0.00262898
0.18199
0.226786
-0.00455308
0.182207
0.222644
-0.00509661
0.18254
0.214527
-0.00370305
0.18264
0.202793
0.182665
0.187881
-1.11207e-08
0.00378859
0.153107
0.175279
-6.28905e-10
0.00516299
0.152225
0.18967
0.00460283
0.151555
0.200903
0.0026562
0.150887
0.208634
-1.21053e-08
0.150507
0.212567
-0.00265623
0.150507
0.212567
-0.00460286
0.150887
0.208634
-0.00516301
0.151555
0.200903
-0.0037886
0.152225
0.18967
0.153107
0.175279
-1.32193e-08
0.00379667
0.123212
0.158644
-7.91754e-10
0.00513775
0.121845
0.172514
0.00457341
0.12086
0.183268
0.00263907
0.120047
0.190636
-1.43893e-08
0.119608
0.194375
-0.00263909
0.119608
0.194375
-0.00457344
0.120047
0.190636
-0.00513777
0.12086
0.183268
-0.00379668
0.121845
0.172514
0.123212
0.158644
-1.52482e-08
0.00376209
0.0952106
0.139819
-1.01489e-09
0.00508355
0.0936196
0.153224
0.00452503
0.0925168
0.163561
0.00261234
0.0917057
0.17061
-1.66393e-08
0.0912861
0.17418
-0.00261238
0.0912861
0.17418
-0.00452506
0.0917057
0.17061
-0.00508358
0.0925168
0.163561
-0.00376211
0.0936196
0.153224
0.0952106
0.139819
-1.71707e-08
0.00373025
0.0702271
0.119869
-1.25329e-09
0.00506535
0.0685777
0.132872
0.00451027
0.06753
0.142851
0.00260302
0.0668367
0.149627
-1.8815e-08
0.0664935
0.15305
-0.00260305
0.0664935
0.15305
-0.0045103
0.0668367
0.149627
-0.00506538
0.06753
0.142851
-0.00373027
0.0685777
0.132872
0.0702271
0.119869
-1.88711e-08
0.00395223
0.099398
-1.50822e-09
0.0485275
0.00525655
0.112062
0.0472227
0.00462366
0.121728
0.0463941
0.00264838
0.128264
0.0458929
-2.06596e-08
0.131558
0.0456472
-0.00264842
0.131558
0.0456472
-0.00462369
0.128264
0.0458929
-0.00525658
0.121728
0.0463941
-0.00395226
0.112062
0.0472227
0.099398
-2.02555e-08
0.0485275
-0.000242273
0.0368206
0.044986
-3.29802e-10
-0.000244335
0.0400204
0.0496157
-0.000171723
0.0427243
0.0535783
-8.55103e-05
0.0446579
0.0564562
-2.06766e-09
0.0456582
0.0579694
8.55062e-05
0.0456582
0.0579694
0.000171719
0.0446579
0.0564562
0.000244332
0.0427243
0.0535783
0.00024227
0.0400204
0.0496157
0.0368206
0.044986
-2.75479e-09
6.54971e-05
0.0813416
0.112101
-5.8178e-10
0.000255403
0.0871785
0.12297
0.000305097
0.0920324
0.132106
0.000204341
0.0954335
0.13867
-6.38746e-09
0.0971805
0.1421
-0.000204354
0.0971805
0.1421
-0.000305108
0.0954335
0.13867
-0.000255414
0.0920324
0.132106
-6.55061e-05
0.0871785
0.12297
0.0813416
0.112101
-8.16679e-09
0.000619844
0.113099
0.153762
-7.65214e-10
0.00104159
0.119863
0.168175
0.00101908
0.125415
0.180109
0.000622799
0.12923
0.188612
-1.08774e-08
0.131175
0.193032
-0.000622821
0.131175
0.193032
-0.0010191
0.12923
0.188612
-0.00104161
0.125415
0.180109
-0.000619859
0.119863
0.168175
0.113099
0.153762
-1.34231e-08
0.00124419
0.129737
0.175411
-9.20869e-10
0.00189272
0.136182
0.191605
0.00178093
0.141405
0.20484
0.00106365
0.144919
0.214198
-1.54452e-08
0.146694
0.21904
-0.00106368
0.146694
0.21904
-0.00178096
0.144919
0.214198
-0.00189274
0.141405
0.20484
-0.00124421
0.136182
0.191605
0.129737
0.175411
-1.83502e-08
0.00185478
0.133001
0.182762
-1.08277e-09
0.00270163
0.138433
0.199695
0.00249683
0.142766
0.213371
0.00147494
0.145612
0.222973
-2.00738e-08
0.147032
0.227922
-0.00147498
0.147032
0.227922
-0.00249687
0.145612
0.222973
-0.00270166
0.142766
0.213371
-0.0018548
0.138433
0.199695
0.133001
0.182762
-2.29605e-08
0.00240727
0.125945
0.179928
-1.29579e-09
0.00342135
0.13009
0.197
0.00312931
0.133319
0.210641
0.00183711
0.13538
0.220158
-2.47093e-08
0.136392
0.225044
-0.00183716
0.136392
0.225044
-0.00312936
0.13538
0.220158
-0.00342139
0.133319
0.210641
-0.0024073
0.13009
0.197
0.125945
0.179928
-2.72145e-08
0.00287836
0.111817
0.169893
-1.65755e-09
0.00403535
0.114669
0.186778
0.00366978
0.11681
0.200144
0.00214712
0.118127
0.209411
-2.92886e-08
0.118762
0.214152
-0.00214718
0.118762
0.214152
-0.00366983
0.118127
0.209411
-0.00403539
0.11681
0.200144
-0.0028784
0.114669
0.186778
0.111817
0.169893
-3.11129e-08
0.0032622
0.0935538
0.15482
-2.16109e-09
0.00455334
0.0952421
0.17136
0.00413202
0.0964482
0.184344
0.00241384
0.0971616
0.193294
-3.36057e-08
0.0974993
0.197857
-0.0024139
0.0974993
0.197857
-0.00413208
0.0971616
0.193294
-0.00455339
0.0964482
0.184344
-0.00326224
0.0952421
0.17136
0.0935539
0.15482
-3.45488e-08
0.00359483
0.0735708
0.136257
-2.76858e-09
0.00502489
0.0742895
0.152395
0.0045541
0.0748049
0.164965
0.0026562
0.0751061
0.17358
-3.74685e-08
0.0752486
0.177957
-0.00265627
0.0752486
0.177957
-0.00455417
0.0751061
0.17358
-0.00502495
0.0748049
0.164965
-0.00359488
0.0742895
0.152395
0.0735708
0.136257
-3.73053e-08
0.00402447
0.115303
-3.50488e-09
0.0536411
0.00557519
0.13105
0.0537507
0.00501338
0.143207
0.0538882
0.00290786
0.151489
0.0539866
-4.03919e-08
0.155682
0.0540324
-0.00290793
0.155682
0.0540324
-0.00501345
0.151489
0.0539866
-0.00557526
0.143207
0.0538882
-0.00402452
0.13105
0.0537507
0.115303
-3.91797e-08
0.0536411
3.96058e-05
0.0100787
0.0348677
-3.45434e-10
3.55494e-05
0.0111211
0.0384986
2.99613e-05
0.0120058
0.0415781
1.66065e-05
0.0126626
0.0438069
-2.34569e-09
0.0130087
0.0449774
-1.66111e-05
0.0130087
0.0449774
-2.99656e-05
0.0126626
0.0438069
-3.55532e-05
0.0120058
0.0415781
-3.96092e-05
0.0111211
0.0384986
0.0100787
0.0348677
-3.1377e-09
0.000283771
0.0305614
0.0913347
-5.56316e-10
0.000385412
0.0332944
0.100696
0.000344489
0.0355814
0.108571
0.000200958
0.0372309
0.114246
-7.54151e-09
0.0380926
0.117217
-0.000200972
0.0380926
0.117217
-0.000344503
0.0372309
0.114246
-0.000385425
0.0355814
0.108571
-0.000283781
0.0332944
0.100696
0.0305614
0.0913347
-9.55698e-09
0.00060613
0.0516501
0.132068
-8.4326e-10
0.000860118
0.0556874
0.145528
0.000779278
0.0590214
0.15675
0.000456774
0.0613727
0.164793
-1.30382e-08
0.0625907
0.16899
-0.0004568
0.0625907
0.16899
-0.000779302
0.0613727
0.164793
-0.000860139
0.0590214
0.15675
-0.000606148
0.0556874
0.145528
0.0516501
0.132068
-1.58884e-08
0.000976714
0.0675993
0.158485
-1.11993e-09
0.00140177
0.0722188
0.174649
0.00128037
0.0759874
0.187995
0.000751954
0.0785934
0.197506
-1.8659e-08
0.0799312
0.202452
-0.00075199
0.0799312
0.202452
-0.0012804
0.0785934
0.197506
-0.0014018
0.0759874
0.187995
-0.00097674
0.0722188
0.174649
0.0675993
0.158485
-2.18956e-08
0.00137021
0.0763951
0.172596
-1.42478e-09
0.00196273
0.0809319
0.190389
0.00179721
0.0845842
0.204939
0.00105576
0.0870616
0.215247
-2.43174e-08
0.0883207
0.220588
-0.00105581
0.0883207
0.220588
-0.00179725
0.0870616
0.215247
-0.00196277
0.0845842
0.204939
-0.00137024
0.0809319
0.190389
0.0763951
0.172596
-2.75009e-08
0.00176603
0.0780531
0.176504
-1.7954e-09
0.00251262
0.0820357
0.195149
0.0022997
0.085187
0.210252
0.0013502
0.0872817
0.220888
-2.98781e-08
0.0883347
0.226381
-0.00135026
0.0883347
0.226381
-0.00229975
0.0872818
0.220887
-0.00251267
0.085187
0.210252
-0.00176607
0.0820357
0.195149
0.0780531
0.176504
-3.26131e-08
0.00214068
0.0736534
0.172152
-2.34407e-09
0.00302699
0.0768165
0.191111
0.00276772
0.0792617
0.206328
0.00162404
0.0808533
0.216983
-3.52419e-08
0.0816444
0.222467
-0.00162411
0.0816444
0.222467
-0.00276778
0.0808533
0.216983
-0.00302704
0.0792617
0.206328
-0.00214072
0.0768165
0.191111
0.0736534
0.172152
-3.71808e-08
0.00247789
0.0647602
0.161235
-3.06562e-09
0.00349567
0.0670055
0.180153
0.00319457
0.0686977
0.195209
0.00187362
0.0697795
0.205688
-4.01742e-08
0.0703122
0.211063
-0.0018737
0.0703122
0.211063
-0.00319465
0.0697795
0.205688
-0.00349574
0.0686977
0.195209
-0.00247794
0.0670055
0.180153
0.0647603
0.161235
-4.10295e-08
0.00279028
0.0530491
0.145178
-3.91183e-09
0.00393465
0.0544109
0.163845
0.00359002
0.0554313
0.178576
0.00210258
0.0560811
0.188766
-4.44223e-08
0.0564007
0.193971
-0.00210267
0.0564007
0.193971
-0.0035901
0.0560811
0.188766
-0.00393472
0.0554313
0.178576
-0.00279033
0.054411
0.163845
0.0530491
0.145178
-4.39077e-08
0.00313632
0.125156
-4.90243e-09
0.0400596
0.00438792
0.14349
0.0407189
0.0039809
0.157798
0.0412472
0.00232208
0.167627
0.041602
-4.73982e-08
0.172628
0.0417773
-0.00232217
0.172628
0.0417773
-0.00398099
0.167627
0.041602
-0.00438799
0.157798
0.0412472
-0.00313638
0.14349
0.0407189
0.125156
-4.56182e-08
0.0400596
-3.18715e-05
0.00411808
0.0307815
-3.73272e-10
-4.55103e-05
0.00453478
0.0339775
-3.66787e-05
0.00488837
0.0366809
-2.02164e-05
0.00515128
0.0386391
-2.20443e-09
0.00528901
0.0396681
2.0212e-05
0.00528901
0.0396681
3.66747e-05
0.00515128
0.0386391
4.55065e-05
0.00488837
0.0366809
3.18681e-05
0.00453478
0.0339775
0.00411808
0.0307815
-3.02756e-09
1.03367e-05
0.0127893
0.0826532
-6.57402e-10
1.78162e-05
0.0140143
0.0912086
2.22614e-05
0.0150523
0.0984026
1.5853e-05
0.0158089
0.103595
-7.2583e-09
0.0162057
0.106316
-1.58672e-05
0.0162057
0.106316
-2.22747e-05
0.0158089
0.103595
-1.78278e-05
0.0150523
0.0984026
-1.03465e-05
0.0140143
0.0912086
0.0127893
0.0826532
-9.29571e-09
0.000125102
0.0227686
0.121963
-9.76899e-10
0.000189705
0.0248034
0.134674
0.000182168
0.0265163
0.145293
0.000110979
0.0277458
0.152927
-1.27439e-08
0.0283878
0.156919
-0.000111004
0.0283878
0.156919
-0.000182191
0.0277458
0.152927
-0.000189726
0.0265163
0.145293
-0.00012512
0.0248034
0.134674
0.0227686
0.121963
-1.57102e-08
0.000297671
0.0315721
0.149384
-1.30081e-09
0.000443854
0.0341644
0.165142
0.000418425
0.0363255
0.178211
0.000250876
0.0378541
0.187565
-1.84331e-08
0.0386472
0.192443
-0.000250912
0.0386472
0.192443
-0.000418459
0.0378541
0.187565
-0.000443884
0.0363255
0.178211
-0.000297696
0.0341644
0.165142
0.0315721
0.149384
-2.17777e-08
0.000512257
0.0376614
0.165994
-1.68081e-09
0.000752987
0.0404666
0.183846
0.000704346
0.0427753
0.198538
0.000419575
0.0443835
0.209002
-2.41867e-08
0.0452117
0.214444
-0.000419623
0.0452117
0.214444
-0.00070439
0.0443835
0.209002
-0.000753026
0.0427753
0.198538
-0.000512289
0.0404666
0.183846
0.0376614
0.165994
-2.74086e-08
0.000752652
0.0403764
0.173036
-2.1286e-09
0.00109279
0.0430698
0.192206
0.0010167
0.0452489
0.207854
0.000603313
0.0467422
0.218942
-2.98095e-08
0.0475047
0.224691
-0.000603371
0.0475047
0.224691
-0.00101675
0.0467422
0.218942
-0.00109284
0.0452489
0.207854
-0.00075269
0.0430698
0.192206
0.0403765
0.173036
-3.25166e-08
0.00100138
0.0397345
0.171793
-2.75045e-09
0.0014413
0.0420679
0.191673
0.00133597
0.0439148
0.207768
0.000790783
0.0451593
0.219111
-3.51732e-08
0.0457889
0.224973
-0.000790851
0.0457889
0.224973
-0.00133603
0.0451593
0.219111
-0.00144136
0.0439148
0.207768
-0.00100142
0.0420679
0.191673
0.0397345
0.171793
-3.70387e-08
0.0012453
0.0362174
0.163507
-3.5583e-09
0.001785
0.0380374
0.183644
0.00165027
0.0394445
0.199814
0.000974894
0.0403779
0.211145
-4.00297e-08
0.0408463
0.21698
-0.000974971
0.0408463
0.21698
-0.00165034
0.0403779
0.211145
-0.00178506
0.0394445
0.199814
-0.00124535
0.0380374
0.183643
0.0362174
0.163507
-4.07805e-08
0.00148861
0.0305752
0.149331
-4.50296e-09
0.00212626
0.0318291
0.169416
0.00195812
0.0327832
0.185406
0.00115347
0.0334104
0.196538
-4.41186e-08
0.0337236
0.202248
-0.00115356
0.0337236
0.202248
-0.0019582
0.0334104
0.196538
-0.00212632
0.0327832
0.185406
-0.00148866
0.0318291
0.169416
0.0305752
0.149331
-4.34898e-08
0.00174589
0.130314
-5.57132e-09
0.0236717
0.00247549
0.150193
0.0243964
0.00226675
0.165823
0.024967
0.00132962
0.176623
0.025351
-4.68651e-08
0.182138
0.025543
-0.00132971
0.182138
0.025543
-0.00226683
0.176623
0.0253511
-0.00247556
0.165823
0.024967
-0.00174594
0.150193
0.0243964
0.130314
-4.49723e-08
0.0236717
2.1165e-06
0.00134865
0.0294307
-3.36759e-10
-2.83642e-07
0.0014975
0.0324824
1.25001e-07
0.00162694
0.0350535
1.43225e-07
0.00172576
0.0369134
-1.89672e-09
0.00177845
0.0378898
-1.46951e-07
0.00177845
0.0378898
-1.28527e-07
0.00172576
0.0369134
2.80418e-07
0.00162695
0.0350535
-2.1193e-06
0.0014975
0.0324824
0.00134865
0.0294307
-2.68841e-09
3.11744e-05
0.00483896
0.0791317
-6.144e-10
4.03208e-05
0.0053409
0.087356
3.71467e-05
0.00577215
0.0942606
2.20369e-05
0.00609251
0.0992429
-6.36324e-09
0.00626226
0.101855
-2.20494e-05
0.00626226
0.101854
-3.71584e-05
0.00609251
0.0992429
-4.03314e-05
0.00577215
0.0942606
-3.11836e-05
0.00534091
0.087356
0.00483896
0.0791317
-8.38997e-09
8.70255e-05
0.00933666
0.117378
-9.50583e-10
0.000123373
0.0102483
0.12973
0.00011389
0.0110247
0.14005
6.76041e-05
0.011591
0.147475
-1.1284e-08
0.0118895
0.15136
-6.76262e-05
0.0118895
0.15136
-0.000113911
0.011591
0.147475
-0.000123392
0.0110247
0.14005
-8.70413e-05
0.0102483
0.12973
0.00933667
0.117378
-1.411e-08
0.00016942
0.0137215
0.14483
-1.30565e-09
0.000246027
0.0149721
0.160341
0.000228512
0.0160271
0.173226
0.000135712
0.0167853
0.182463
-1.64334e-08
0.0171824
0.187286
-0.000135744
0.0171824
0.187286
-0.000228542
0.0167853
0.182463
-0.000246054
0.0160271
0.173226
-0.000169442
0.0149722
0.160341
0.0137215
0.14483
-1.95873e-08
0.000275365
0.017151
0.162289
-1.72277e-09
0.000401383
0.0185947
0.180098
0.000373563
0.0197983
0.194795
0.000221801
0.020651
0.205288
-2.16708e-08
0.0210944
0.210753
-0.000221844
0.0210944
0.210753
-0.000373603
0.020651
0.205288
-0.000401417
0.0197984
0.194795
-0.000275394
0.0185947
0.180098
0.017151
0.162289
-2.46984e-08
0.000399422
0.0191209
0.170667
-2.20686e-09
0.000580336
0.020589
0.190031
0.000539917
0.0217948
0.205898
0.00032032
0.0226364
0.217176
-2.67904e-08
0.0230705
0.223035
-0.000320372
0.0230705
0.223035
-0.000539965
0.0226364
0.217176
-0.000580378
0.0217948
0.205898
-0.000399456
0.020589
0.190031
0.0191209
0.170667
-2.93375e-08
0.000534021
0.0194537
0.170926
-2.8447e-09
0.000772521
0.0207941
0.191229
0.000717867
0.0218748
0.207742
0.000425468
0.0226174
0.219423
-3.16594e-08
0.0229972
0.225472
-0.000425529
0.0229973
0.225472
-0.000717924
0.0226174
0.219422
-0.00077257
0.0218748
0.207742
-0.000534061
0.0207942
0.191229
0.0194538
0.170926
-3.34349e-08
0.000672343
0.0182446
0.164044
-3.6368e-09
0.000969727
0.0193454
0.184795
0.000899553
0.0202149
0.201544
0.000532394
0.0208035
0.213326
-3.60409e-08
0.021102
0.219408
-0.000532465
0.021102
0.219408
-0.000899617
0.0208035
0.213326
-0.000969782
0.0202149
0.201544
-0.000672387
0.0193454
0.184795
0.0182446
0.164044
-3.6805e-08
0.000814356
0.0157861
0.150975
-4.52975e-09
0.00116898
0.0165903
0.171816
0.00108007
0.0172133
0.188496
0.000637537
0.0176297
0.200154
-3.96888e-08
0.0178394
0.206148
-0.000637614
0.0178394
0.206148
-0.00108014
0.0176297
0.200154
-0.00116904
0.0172133
0.188496
-0.000814403
0.0165903
0.171816
0.0157861
0.150975
-3.92164e-08
0.00095463
0.132645
-5.52469e-09
0.0125001
0.00136238
0.15338
0.0129962
0.00125402
0.169759
0.013386
0.000738023
0.181119
0.0136503
-4.20955e-08
0.186932
0.0137835
-0.000738104
0.186932
0.0137835
-0.00125409
0.181119
0.0136504
-0.00136244
0.169759
0.013386
-0.000954679
0.15338
0.0129962
0.132645
-4.04861e-08
0.0125001
-5.62229e-06
0.000588873
0.0288475
-2.98589e-10
-8.37991e-06
0.000647829
0.0318373
-6.63551e-06
0.000697704
0.0343541
-3.6555e-06
0.000735619
0.0361748
-1.50446e-09
0.000755549
0.0371306
3.65243e-06
0.00075555
0.0371306
6.63264e-06
0.00073562
0.0361748
8.37736e-06
0.000697704
0.0343541
5.61989e-06
0.00064783
0.0318373
0.000588874
0.0288475
-2.2533e-09
-8.45786e-07
0.00205183
0.0776696
-6.01137e-10
-1.87132e-06
0.00226041
0.0857445
-5.94108e-07
0.00243815
0.0925189
1.94566e-07
0.00257027
0.0974074
-5.1069e-09
0.00264028
0.09997
-2.03961e-07
0.00264028
0.09997
5.84751e-07
0.00257028
0.0974074
1.86198e-06
0.00243815
0.0925189
8.38205e-07
0.00226042
0.0857445
0.00205184
0.0776696
-7.00525e-09
1.79625e-05
0.00399108
0.115421
-9.20945e-10
2.65775e-05
0.00438922
0.127593
2.60671e-05
0.00472852
0.13776
1.61083e-05
0.00497748
0.145078
-9.27959e-09
0.00510905
0.148907
-1.61266e-05
0.00510905
0.148907
-2.60842e-05
0.00497749
0.145078
-2.65925e-05
0.00472853
0.13776
-1.79755e-05
0.00438922
0.127593
0.00399109
0.115421
-1.18075e-08
5.1474e-05
0.00598185
0.142788
-1.25885e-09
7.66301e-05
0.00655519
0.15815
7.29458e-05
0.00704123
0.170917
4.40372e-05
0.00739353
0.180076
-1.36292e-08
0.00757886
0.18486
-4.40639e-05
0.00757887
0.18486
-7.29706e-05
0.00739354
0.180076
-7.66519e-05
0.00704124
0.170917
-5.14925e-05
0.0065552
0.15815
0.00598186
0.142788
-1.64359e-08
9.84473e-05
0.0076486
0.160524
-1.6541e-09
0.000145833
0.00834138
0.178264
0.000137706
0.0089232
0.192921
8.25498e-05
0.00933967
0.203397
-1.80589e-08
0.00955744
0.208857
-8.2585e-05
0.00955744
0.208857
-0.000137739
0.00933967
0.203397
-0.000145861
0.00892321
0.192921
-9.84712e-05
0.00834139
0.178264
0.00764861
0.160524
-2.07748e-08
0.00015672
0.00872307
0.169435
-2.09993e-09
0.000230532
0.00945836
0.18884
0.000216719
0.0100677
0.204767
0.000129449
0.0104981
0.216105
-2.23951e-08
0.0107215
0.222
-0.000129493
0.0107215
0.222
-0.000216759
0.0104981
0.216105
-0.000230567
0.0100677
0.204767
-0.000156749
0.00945838
0.18884
0.00872308
0.169435
-2.47299e-08
0.000223023
0.00906718
0.170359
-2.66343e-09
0.000326078
0.00976637
0.190818
0.000305561
0.0103359
0.207495
0.000182068
0.0107325
0.219312
-2.65213e-08
0.0109367
0.225439
-0.000182119
0.0109367
0.225439
-0.000305609
0.0107325
0.219312
-0.000326119
0.010336
0.207495
-0.000223056
0.00976638
0.190818
0.00906719
0.170359
-2.82359e-08
0.000294287
0.00867071
0.164146
-3.35581e-09
0.000428473
0.00926847
0.185159
0.000400236
0.00974618
0.202162
0.000237893
0.0100738
0.214147
-3.02375e-08
0.0102412
0.220341
-0.000237952
0.0102412
0.220341
-0.000400289
0.0100738
0.214147
-0.000428519
0.00974619
0.202162
-0.000294324
0.00926848
0.185159
0.00867073
0.164146
-3.11292e-08
0.000370675
0.00763062
0.151645
-4.13897e-09
0.000535974
0.00808701
0.172832
0.000497878
0.00844423
0.189836
0.000294868
0.00868568
0.201746
-3.33339e-08
0.008808
0.207876
-0.000294933
0.00880801
0.207876
-0.000497937
0.00868569
0.201746
-0.000536025
0.00844423
0.189836
-0.000370714
0.00808702
0.172832
0.00763064
0.151645
-3.32174e-08
0.000447244
0.1337
-4.98703e-09
0.00612865
0.000642899
0.154847
0.0064243
0.000594928
0.171593
0.00665775
0.000351267
0.183231
0.00681703
-3.53954e-08
0.189194
0.0068976
-0.000351335
0.189194
0.0068976
-0.00059499
0.183231
0.00681703
-0.000642952
0.171593
0.00665775
-0.000447285
0.154847
0.00642431
0.1337
-3.43741e-08
0.00612865
-8.55552e-07
0.000192078
0.0286562
-2.28853e-10
-1.65633e-06
0.000212749
0.0316254
-1.20394e-06
0.000230734
0.0341229
-6.4279e-07
0.000244851
0.0359293
-1.16463e-09
0.000252382
0.0368776
6.40479e-07
0.000252382
0.0368776
1.20176e-06
0.000244851
0.0359293
1.65427e-06
0.000230735
0.0341229
8.53664e-07
0.000212749
0.0316254
0.000192078
0.0286562
-1.75377e-09
1.86599e-06
0.000749565
0.0771102
-4.72638e-10
1.99251e-06
0.000830024
0.0851271
2.16019e-06
0.000899702
0.0918498
1.41459e-06
0.000952424
0.0967006
-4.0195e-09
0.000980567
0.0992432
-1.4225e-06
0.000980567
0.0992432
-2.16764e-06
0.000952425
0.0967006
-1.99915e-06
0.000899703
0.0918497
-1.87172e-06
0.000830026
0.0851271
0.000749568
0.0771102
-5.47801e-09
1.00888e-05
0.00154112
0.11462
-7.56533e-10
1.41691e-05
0.00170331
0.126715
1.34552e-05
0.0018431
0.136818
8.15146e-06
0.00194702
0.144088
-7.24885e-09
0.00200231
0.147893
-8.16567e-06
0.00200231
0.147893
-1.34685e-05
0.00194702
0.144088
-1.4181e-05
0.00184311
0.136818
-1.0099e-05
0.00170332
0.126715
0.00154113
0.11462
-9.32139e-09
2.44696e-05
0.00239685
0.141907
-1.06466e-09
3.56544e-05
0.00264047
0.157202
3.35851e-05
0.00284908
0.169913
2.0149e-05
0.00300208
0.179035
-1.06894e-08
0.00308308
0.1838
-2.01698e-05
0.00308308
0.1838
-3.36045e-05
0.00300208
0.179035
-3.56716e-05
0.00284908
0.169913
-2.44842e-05
0.00264047
0.157202
0.00239685
0.141907
-1.30545e-08
4.50787e-05
0.00315431
0.159721
-1.42187e-09
6.62053e-05
0.00345954
0.177424
6.22626e-05
0.0037185
0.192055
3.72367e-05
0.00390602
0.202518
-1.42336e-08
0.0040047
0.207973
-3.72644e-05
0.00400471
0.207973
-6.22883e-05
0.00390602
0.202518
-6.62278e-05
0.00371851
0.192055
-4.50975e-05
0.00345955
0.177424
0.00315432
0.159721
-1.65744e-08
7.13475e-05
0.003685
0.168833
-1.81716e-09
0.000104734
0.00401959
0.188246
9.8367e-05
0.00429989
0.204192
5.87243e-05
0.00450019
0.215551
-1.77195e-08
0.00460488
0.221459
-5.87588e-05
0.00460488
0.221459
-9.83988e-05
0.0045002
0.215551
-0.000104762
0.0042999
0.204192
-7.13704e-05
0.0040196
0.188246
0.00368501
0.168833
-1.98036e-08
0.000102072
0.00391036
0.170032
-2.29824e-09
0.000149431
0.00423801
0.190552
0.000140124
0.0045081
0.207296
8.35232e-05
0.00469839
0.21917
-2.10493e-08
0.00479706
0.22533
-8.35642e-05
0.00479706
0.22533
-0.000140162
0.0046984
0.21917
-0.000149463
0.00450811
0.207296
-0.000102098
0.00423802
0.190552
0.00391037
0.170031
-2.26868e-08
0.000135948
0.00380726
0.164113
-2.86823e-09
0.000198432
0.00409539
0.185239
0.000185601
0.0043285
0.202354
0.000110402
0.0044902
0.214431
-2.40637e-08
0.00457329
0.220675
-0.000110448
0.00457329
0.220675
-0.000185644
0.00449021
0.214431
-0.000198469
0.00432851
0.202354
-0.000135977
0.0040954
0.185239
0.00380727
0.164113
-2.50924e-08
0.000172714
0.00340423
0.151875
-3.48533e-09
0.000250299
0.00363084
0.173219
0.000232871
0.00380982
0.190372
0.000138061
0.00393188
0.202399
-2.65933e-08
0.00399401
0.208593
-0.000138112
0.00399401
0.208593
-0.000232918
0.00393188
0.202399
-0.000250339
0.00380982
0.190372
-0.000172746
0.00363085
0.173219
0.00340424
0.151875
-2.68772e-08
0.00020778
0.134121
-4.12809e-09
0.00277589
0.000300108
0.155459
0.00292662
0.000278677
0.172379
0.00304593
0.000164898
0.184149
0.00312772
-2.83205e-08
0.190183
0.00316926
-0.000164953
0.190183
0.00316926
-0.000278727
0.184149
0.00312772
-0.00030015
0.172379
0.00304594
-0.000207813
0.155458
0.00292663
0.134121
-2.79514e-08
0.0027759
-1.39132e-06
7.83612e-05
0.0285793
-1.76057e-10
-2.00255e-06
8.60353e-05
0.03154
-1.60709e-06
9.26025e-05
0.0340299
-8.86502e-07
9.7717e-05
0.0358309
-8.51235e-10
0.000100419
0.0367763
8.84823e-07
0.000100419
0.0367763
1.60549e-06
9.77173e-05
0.0358309
2.00106e-06
9.26029e-05
0.0340299
1.38994e-06
8.60357e-05
0.03154
7.83615e-05
0.0285793
-1.2951e-09
-1.62579e-06
0.000295076
0.0768951
-3.87149e-10
-2.44506e-06
0.000325948
0.084888
-1.95547e-06
0.00035262
0.0915893
-1.03658e-06
0.000372847
0.0964246
-2.97427e-09
0.000383634
0.098959
1.03073e-06
0.000383634
0.098959
1.94997e-06
0.000372847
0.0964246
2.44003e-06
0.000352621
0.0915892
1.62129e-06
0.00032595
0.084888
0.000295077
0.0768951
-4.10608e-09
8.83295e-07
0.000607785
0.114306
-6.13999e-10
1.16625e-06
0.00067239
0.126369
1.37477e-06
0.000728089
0.136442
9.60438e-07
0.000769709
0.143692
-5.39837e-09
0.000791903
0.147486
-9.71015e-07
0.000791904
0.147486
-1.38466e-06
0.000769711
0.143692
-1.175e-06
0.000728091
0.136442
-8.90441e-07
0.000672393
0.126369
0.000607788
0.114306
-6.93954e-09
6.10477e-06
0.00095731
0.141552
-8.6936e-10
9.02927e-06
0.00105757
0.156814
8.74958e-06
0.00114367
0.169498
5.35779e-06
0.00120722
0.1786
-8.00889e-09
0.00124098
0.183356
-5.37343e-06
0.00124098
0.183356
-8.76415e-06
0.00120723
0.1786
-9.04222e-06
0.00114367
0.169498
-6.11575e-06
0.00105757
0.156814
0.000957316
0.141552
-9.87366e-09
1.42885e-05
0.00127948
0.159385
-1.16161e-09
2.11877e-05
0.00140892
0.177066
2.01687e-05
0.00151921
0.191681
1.2166e-05
0.00159964
0.202134
-1.07193e-08
0.00164213
0.207584
-1.21869e-05
0.00164213
0.207584
-2.01881e-05
0.00159964
0.202134
-2.12047e-05
0.00151922
0.191681
-1.43027e-05
0.00140893
0.177066
0.00127948
0.159385
-1.26341e-08
2.51957e-05
0.00151842
0.168569
-1.47876e-09
3.72674e-05
0.00166432
0.187979
3.52685e-05
0.00178717
0.203926
2.11636e-05
0.00187561
0.215289
-1.33997e-08
0.00192203
0.2212
-2.11897e-05
0.00192203
0.2212
-3.52926e-05
0.00187562
0.215289
-3.72885e-05
0.00178717
0.203926
-2.52131e-05
0.00166432
0.187979
0.00151843
0.168569
-1.51716e-08
3.83815e-05
0.00163557
0.169876
-1.85104e-09
5.65789e-05
0.0017822
0.190416
5.33665e-05
0.00190378
0.207182
3.19292e-05
0.0019901
0.219077
-1.59732e-08
0.00203505
0.225249
-3.19603e-05
0.00203505
0.225249
-5.33951e-05
0.00199011
0.219077
-5.66037e-05
0.00190379
0.207182
-3.84018e-05
0.00178221
0.190416
0.00163558
0.169876
-1.74575e-08
5.33582e-05
0.00161437
0.164081
-2.28213e-09
7.83781e-05
0.00174659
0.185249
7.36608e-05
0.00185424
0.202408
4.39437e-05
0.00192948
0.214521
-1.83202e-08
0.00196829
0.220786
-4.39794e-05
0.00196829
0.220786
-7.36935e-05
0.00192948
0.214521
-7.84062e-05
0.00185425
0.202408
-5.33809e-05
0.00174659
0.185249
0.00161438
0.164081
-1.93944e-08
7.0095e-05
0.00146081
0.151959
-2.74595e-09
0.000102077
0.00156751
0.173366
9.53174e-05
0.00165229
0.190581
5.66372e-05
0.00171047
0.202656
-2.03137e-08
0.00174018
0.208878
-5.66767e-05
0.00174019
0.208878
-9.53535e-05
0.00171047
0.202656
-0.000102108
0.00165229
0.190581
-7.01196e-05
0.00156751
0.173366
0.00146082
0.151959
-2.08745e-08
8.6378e-05
0.134292
-3.22038e-09
0.00120294
0.000125397
0.155711
0.00127583
0.000116884
0.172706
0.00133378
6.93186e-05
0.184533
0.00137366
-2.17255e-08
0.190599
0.00139397
-6.93608e-05
0.190599
0.00139397
-0.000116923
0.184533
0.00137366
-0.00012543
0.172706
0.00133378
-8.64038e-05
0.155711
0.00127584
0.134292
-2.18331e-08
0.00120294
-4.02601e-07
2.05584e-05
0.0285591
-1.24967e-10
-6.1887e-07
2.27703e-05
0.0315174
-4.95914e-07
2.4788e-05
0.034005
-2.74885e-07
2.64463e-05
0.0358042
-5.93945e-10
2.73403e-05
0.0367487
2.73721e-07
2.73403e-05
0.0367487
4.94798e-07
2.64465e-05
0.0358042
6.17832e-07
2.47883e-05
0.034005
4.01633e-07
2.27706e-05
0.0315174
2.05586e-05
0.0285591
-9.07933e-10
-5.1454e-07
9.19974e-05
0.0768242
-3.06607e-10
-8.73587e-07
0.000102405
0.0848087
-7.26695e-07
0.000111664
0.0915022
-3.96693e-07
0.000118865
0.0963318
-2.1034e-09
0.00012275
0.0988632
3.92568e-07
0.00012275
0.0988632
7.22789e-07
0.000118865
0.0963318
8.7004e-07
0.000111664
0.0915022
5.11299e-07
0.000102407
0.0848087
9.19984e-05
0.0768242
-2.92115e-09
3.55835e-07
0.000204266
0.114193
-4.91622e-10
3.3402e-07
0.000227562
0.126243
3.68414e-07
0.000248015
0.136306
2.55993e-07
0.000263566
0.143547
-3.84668e-09
0.000271931
0.147337
-2.63524e-07
0.000271932
0.147337
-3.75491e-07
0.000263567
0.143547
-3.40241e-07
0.000248016
0.136306
-3.60972e-07
0.000227564
0.126243
0.000204268
0.114193
-4.97378e-09
2.29877e-06
0.000336724
0.141417
-6.90318e-10
3.24475e-06
0.000374491
0.156666
3.08873e-06
0.000407379
0.169339
1.87537e-06
0.000431999
0.178433
-5.74384e-09
0.000445174
0.183185
-1.88659e-06
0.000445175
0.183185
-3.0992e-06
0.000432001
0.178433
-3.25405e-06
0.000407381
0.169339
-2.30673e-06
0.000374494
0.156666
0.000336728
0.141417
-7.13925e-09
5.47561e-06
0.000464924
0.159251
-9.08887e-10
7.97925e-06
0.000515342
0.176923
7.53883e-06
0.000558814
0.19153
4.53006e-06
0.000590915
0.201978
-7.73045e-09
0.000607989
0.207426
-4.54514e-06
0.000607989
0.207426
-7.55283e-06
0.000590917
0.201978
-7.99158e-06
0.000558818
0.19153
-5.486e-06
0.000515347
0.176922
0.00046493
0.159251
-9.20751e-09
9.84241e-06
0.000565867
0.168458
-1.13969e-09
1.44615e-05
0.000624273
0.187865
1.36434e-05
0.000674
0.203812
8.17335e-06
0.000710216
0.215175
-9.70956e-09
0.000729342
0.221087
-8.19227e-06
0.000729343
0.221087
-1.36609e-05
0.000710219
0.215175
-1.44768e-05
0.000674005
0.203812
-9.85513e-06
0.000624279
0.187865
0.000565873
0.168458
-1.11344e-08
1.52555e-05
0.000622164
0.169804
-1.40448e-09
2.24522e-05
0.000682272
0.190351
2.11583e-05
0.000732646
0.207125
1.26521e-05
0.00076879
0.219027
-1.16234e-08
0.000787718
0.225203
-1.26748e-05
0.000787719
0.225203
-2.11791e-05
0.000768793
0.219027
-2.24703e-05
0.000732651
0.207125
-1.52703e-05
0.000682278
0.190351
0.000622171
0.169804
-1.28947e-08
2.15287e-05
0.000624716
0.164057
-1.70818e-09
3.16385e-05
0.00068011
0.185241
2.97376e-05
0.000725651
0.202417
1.77411e-05
0.00075777
0.214544
-1.33867e-08
0.000774421
0.220817
-1.77671e-05
0.000774422
0.220817
-2.97616e-05
0.000757773
0.214544
-3.16592e-05
0.000725655
0.202417
-2.15455e-05
0.000680116
0.185241
0.000624722
0.164057
-1.44151e-08
2.85862e-05
0.000573673
0.151981
-2.03097e-09
4.16689e-05
0.000619362
0.173414
3.89382e-05