/*--------------------------------*- C++ -*----------------------------------*\
| =========                 |                                                 |
| \\      /  F ield         | OpenFOAM: The Open Source CFD Toolbox           |
|  \\    /   O peration     | Version:  2106                                  |
|   \\  /    A nd           | Website:  www.openfoam.com                      |
|    \\/     M anipulation  |                                                 |
\*---------------------------------------------------------------------------*/
FoamFile
{
    version     2.0;
    format      ascii;
    arch        "LSB;label=32;scalar=64";
    class       surfaceScalarField;
    location    "1";
    object      phi;
}
// * * * * * * * * * * * * * * * * * * * * * * * * * * * * * * * * * * * * * //

dimensions      [0 3 -1 0 0 0 0];

oriented        oriented;

internalField   nonuniform List<scalar> 
29100
(
0.00118092
0.150399
0.0809177
-4.4439e-10
0.00145318
0.155276
0.0889235
0.00124705
0.158695
0.0956112
0.000710204
0.160973
0.100398
2.57666e-10
0.162116
0.102891
-0.000710204
0.162116
0.102891
-0.00124705
0.160973
0.100398
-0.00145317
0.158695
0.0956112
-0.00118092
0.155276
0.0889235
0.150399
0.0809177
-8.34118e-10
0.00236444
0.208249
0.155451
-5.35956e-10
0.00328431
0.212834
0.168974
0.00292935
0.215905
0.180031
0.00169461
0.217822
0.187851
2.97456e-10
0.218762
0.191892
-0.00169461
0.218762
0.191892
-0.00292935
0.217822
0.187851
-0.00328431
0.215905
0.180031
-0.00236444
0.212834
0.168974
0.208249
0.155451
-2.18029e-09
0.00301635
0.219392
0.184673
-6.51859e-10
0.00426641
0.222319
0.199696
0.00382977
0.224226
0.211789
0.00221817
0.225267
0.220265
2.15839e-10
0.22575
0.224621
-0.00221817
0.22575
0.224621
-0.00382977
0.225267
0.220265
-0.00426641
0.224226
0.211789
-0.00301635
0.222319
0.199696
0.219392
0.184673
-3.24629e-09
0.00344518
0.206176
0.191773
-7.97966e-10
0.00480665
0.207435
0.206933
0.0043057
0.208203
0.218983
0.00248939
0.208443
0.227369
1.07359e-11
0.208514
0.231662
-0.00248939
0.208514
0.231662
-0.00430571
0.208443
0.227369
-0.00480665
0.208203
0.218983
-0.00344518
0.207435
0.206933
0.206176
0.191773
-4.21742e-09
0.00367457
0.181265
0.186406
-8.60841e-10
0.00505745
0.181242
0.201202
0.00451812
0.181144
0.212844
0.0026088
0.180815
0.220898
-3.7085e-10
0.1806
0.225007
-0.0026088
0.1806
0.225007
-0.00451812
0.180815
0.220898
-0.00505745
0.181144
0.212844
-0.00367457
0.181242
0.201202
0.181265
0.186406
-5.15606e-09
0.0037596
0.151939
0.173905
-8.62866e-10
0.00512353
0.151065
0.188184
0.00456769
0.150402
0.199329
0.00263594
0.14974
0.207
-8.2591e-10
0.149363
0.210903
-0.00263594
0.149363
0.210903
-0.00456769
0.14974
0.207
-0.00512353
0.150402
0.199329
-0.0037596
0.151065
0.188184
0.151939
0.173905
-6.11034e-09
0.00376775
0.122276
0.157402
-9.03977e-10
0.00509868
0.120921
0.171164
0.00453868
0.119945
0.181835
0.00261904
0.119139
0.189145
-1.44713e-09
0.118703
0.192856
-0.00261905
0.118703
0.192856
-0.00453869
0.119139
0.189145
-0.00509868
0.119945
0.181835
-0.00376775
0.120921
0.171164
0.122276
0.157402
-7.12162e-09
0.00373358
0.0944903
0.138726
-8.84133e-10
0.0050451
0.0929127
0.152027
0.00449086
0.0918193
0.162283
0.00259264
0.091015
0.169278
-2.39144e-09
0.0905989
0.17282
-0.00259264
0.0905989
0.17282
-0.00449086
0.091015
0.169278
-0.00504511
0.0918193
0.162283
-0.00373358
0.0929127
0.152027
0.0944902
0.138726
-8.24166e-09
0.00370211
0.069698
0.118933
-7.73293e-10
0.00502723
0.0680622
0.131836
0.00447638
0.0670231
0.141737
0.00258348
0.0663356
0.14846
-3.86006e-09
0.0659953
0.151857
-0.00258349
0.0659953
0.151857
-0.00447638
0.0663356
0.14846
-0.00502724
0.0670231
0.141737
-0.00370212
0.0680622
0.131836
0.069698
0.118933
-9.45789e-09
0.00392252
0.098623
-8.19831e-10
0.0481634
0.00521712
0.111188
0.0468692
0.00458904
0.12078
0.0460473
0.00262857
0.127265
0.0455503
-5.77522e-09
0.130534
0.0453066
-0.00262859
0.130534
0.0453066
-0.00458905
0.127265
0.0455503
-0.00521713
0.12078
0.0460473
-0.00392253
0.111188
0.0468691
0.098623
-1.05155e-08
0.0481634
-0.000240337
0.03653
0.044628
-3.51678e-10
-0.000242377
0.0397046
0.0492209
-0.000170342
0.0423872
0.053152
-8.48198e-05
0.0443056
0.056007
-7.40075e-11
0.045298
0.0575082
8.48195e-05
0.045298
0.0575082
0.000170342
0.0443056
0.056007
0.000242377
0.0423872
0.053152
0.000240336
0.0397046
0.0492209
0.03653
0.044628
-1.17241e-09
6.50035e-05
0.0807034
0.111212
-4.64903e-10
0.000253419
0.0864948
0.121995
0.000302719
0.091311
0.131058
0.000202749
0.0946857
0.137571
-8.56338e-10
0.0964192
0.140973
-0.000202751
0.0964192
0.140973
-0.000302721
0.0946857
0.137571
-0.000253421
0.091311
0.131058
-6.50063e-05
0.0864948
0.121995
0.0807034
0.111212
-3.34238e-09
0.000615006
0.112216
0.152546
-4.97984e-10
0.00103346
0.118929
0.166844
0.00101112
0.124438
0.178684
0.000617943
0.128223
0.18712
-1.98657e-09
0.130153
0.191505
-0.000617947
0.130153
0.191505
-0.00101113
0.128223
0.18712
-0.00103346
0.124438
0.178684
-0.000615011
0.118929
0.166844
0.112216
0.152546
-5.4776e-09
0.0012345
0.128729
0.174026
-5.0532e-10
0.00187799
0.135125
0.190093
0.00176709
0.140309
0.203223
0.00105538
0.143796
0.212508
-3.27096e-09
0.145557
0.217312
-0.00105539
0.145557
0.217312
-0.00176709
0.143796
0.212508
-0.001878
0.140309
0.203223
-0.00123451
0.135125
0.190093
0.128729
0.174026
-7.52083e-09
0.00184039
0.131973
0.181322
-5.41324e-10
0.0026807
0.137364
0.198122
0.00247751
0.141665
0.211691
0.00146354
0.14449
0.221219
-4.71281e-09
0.145899
0.226129
-0.00146355
0.145899
0.226129
-0.00247752
0.14449
0.221219
-0.00268071
0.141665
0.211691
-0.0018404
0.137364
0.198122
0.131973
0.181322
-9.49628e-09
0.00238869
0.124976
0.178513
-5.97045e-10
0.00339499
0.12909
0.195452
0.00310523
0.132296
0.208988
0.00182299
0.134341
0.21843
-6.30418e-09
0.135346
0.223278
-0.001823
0.135346
0.223278
-0.00310524
0.134341
0.21843
-0.003395
0.132296
0.208988
-0.0023887
0.12909
0.195452
0.124976
0.178513
-1.14268e-08
0.00285625
0.11096
0.168561
-7.14204e-10
0.00400441
0.113792
0.185314
0.00364168
0.115917
0.198577
0.00213071
0.117225
0.207772
-8.02712e-09
0.117856
0.212477
-0.00213073
0.117856
0.212477
-0.0036417
0.117225
0.207772
-0.00400443
0.115917
0.198577
-0.00285627
0.113792
0.185314
0.11096
0.168561
-1.3272e-08
0.00323726
0.09284
0.153609
-8.99025e-10
0.00451861
0.0945165
0.170021
0.00410055
0.0957145
0.182904
0.00239548
0.0964232
0.191785
-9.92075e-09
0.0967587
0.196313
-0.0023955
0.0967587
0.196313
-0.00410057
0.0964232
0.191785
-0.00451863
0.0957145
0.182904
-0.00323728
0.0945165
0.170021
0.09284
0.153609
-1.49065e-08
0.0035675
0.0730116
0.135194
-1.06073e-09
0.00498675
0.0737258
0.151207
0.00451957
0.0742382
0.163681
0.00263608
0.0745376
0.172229
-1.19458e-08
0.0746794
0.176573
-0.00263611
0.0746794
0.176573
-0.0045196
0.0745376
0.172229
-0.00498677
0.0742382
0.163681
-0.00356752
0.0737258
0.151207
0.0730116
0.135194
-1.61333e-08
0.00399398
0.114406
-1.11964e-09
0.0532348
0.00553301
0.130031
0.0533444
0.00497549
0.142095
0.0534815
0.0028859
0.150313
0.0535795
-1.40785e-08
0.154474
0.0536252
-0.00288593
0.154474
0.0536252
-0.00497551
0.150313
0.0535795
-0.00553303
0.142095
0.0534815
-0.003994
0.130031
0.0533444
0.114406
-1.69018e-08
0.0532348
3.93093e-05
0.00999832
0.0345904
-1.84473e-10
3.5284e-05
0.0110324
0.0381925
2.97378e-05
0.01191
0.0412475
1.6484e-05
0.0125616
0.0434586
-4.45243e-10
0.0129049
0.0446198
-1.64849e-05
0.0129049
0.0446198
-2.97387e-05
0.0125616
0.0434586
-3.52849e-05
0.01191
0.0412475
-3.93104e-05
0.0110324
0.0381925
0.00999832
0.0345904
-1.21974e-09
0.000281562
0.0303189
0.09061
-1.56896e-10
0.000382407
0.0330302
0.0998967
0.000341802
0.035299
0.10771
0.000199393
0.0369354
0.11334
-1.99085e-09
0.0377903
0.116287
-0.000199397
0.0377903
0.116287
-0.000341806
0.0369354
0.11334
-0.000382411
0.035299
0.10771
-0.000281566
0.0330302
0.0998967
0.0303189
0.09061
-3.78194e-09
0.000601392
0.0512416
0.131021
-2.40611e-10
0.000853394
0.0552472
0.144375
0.000773188
0.058555
0.155508
0.000453209
0.0608877
0.163488
-3.95157e-09
0.0620962
0.167652
-0.000453217
0.0620962
0.167652
-0.000773195
0.0608877
0.163488
-0.000853401
0.058555
0.155508
-0.000601398
0.0552472
0.144375
0.0512416
0.131021
-6.37343e-09
0.000969072
0.0670666
0.157232
-2.98701e-10
0.00139082
0.07165
0.173268
0.00127037
0.0753892
0.186509
0.000746088
0.0779749
0.195945
-6.18522e-09
0.0793023
0.200852
-0.0007461
0.0793023
0.200852
-0.00127038
0.0779749
0.195945
-0.00139083
0.0753892
0.186509
-0.000969082
0.07165
0.173268
0.0670666
0.157232
-8.92329e-09
0.00135949
0.0757952
0.171234
-3.47025e-10
0.00194741
0.0802969
0.188888
0.00178319
0.0839209
0.203323
0.00104754
0.0863792
0.21355
-8.56289e-09
0.0876286
0.21885
-0.00104756
0.0876286
0.21885
-0.00178321
0.0863792
0.21355
-0.00194742
0.0839209
0.203323
-0.00135951
0.0802969
0.188888
0.0757952
0.171234
-1.13845e-08
0.00175225
0.0774424
0.175114
-4.69893e-10
0.00249305
0.0813944
0.193614
0.00228181
0.0845216
0.208598
0.00133971
0.0866004
0.219151
-1.09893e-08
0.0876454
0.224601
-0.00133973
0.0876454
0.224601
-0.00228183
0.0866004
0.219151
-0.00249307
0.0845216
0.208598
-0.00175227
0.0813944
0.193614
0.0774424
0.175114
-1.37275e-08
0.00212402
0.0730791
0.1708
-6.49829e-10
0.00300348
0.0762182
0.189611
0.00274625
0.078645
0.20471
0.00161147
0.0802246
0.215283
-1.33898e-08
0.0810097
0.220724
-0.00161149
0.0810098
0.220724
-0.00274628
0.0802246
0.215283
-0.0030035
0.078645
0.20471
-0.00212404
0.0762182
0.189611
0.0730791
0.1708
-1.59264e-08
0.00245867
0.0642571
0.159973
-8.15322e-10
0.00346861
0.0664855
0.178743
0.00316988
0.0681652
0.193683
0.00185916
0.0692389
0.204082
-1.56729e-08
0.0697678
0.209414
-0.00185919
0.0697678
0.209414
-0.00316991
0.0692389
0.204082
-0.00346864
0.0681652
0.193683
-0.00245869
0.0664855
0.178743
0.0642571
0.159973
-1.79262e-08
0.00276872
0.0526382
0.144044
-1.04595e-09
0.00390429
0.0539901
0.162567
0.00356235
0.0550031
0.177185
0.0020864
0.0556482
0.187296
-1.77796e-08
0.0559655
0.192461
-0.00208643
0.0559655
0.192461
-0.00356238
0.0556482
0.187296
-0.00390432
0.0550031
0.177185
-0.00276874
0.0539901
0.162567
0.0526382
0.144044
-1.96545e-08
0.00311216
0.124182
-1.45764e-09
0.0397503
0.00435413
0.142374
0.040405
0.00395028
0.156572
0.0409295
0.00230423
0.166325
0.0412818
-1.95895e-08
0.171288
0.0414559
-0.00230427
0.171288
0.0414559
-0.00395031
0.166325
0.0412818
-0.00435416
0.156572
0.0409295
-0.00311219
0.142374
0.040405
0.124182
-2.10482e-08
0.0397503
-3.16252e-05
0.00408519
0.0305368
-1.60421e-10
-4.51604e-05
0.00449856
0.0337075
-3.63979e-05
0.00484932
0.0363894
-2.00611e-05
0.00511012
0.0383321
-6.16128e-10
0.00524675
0.039353
2.00599e-05
0.00524675
0.039353
3.63967e-05
0.00511012
0.0383321
4.51593e-05
0.00484932
0.0363894
3.16239e-05
0.00449856
0.0337075
0.00408519
0.0305368
-1.19511e-09
1.02327e-05
0.0126868
0.0819982
-3.01877e-10
1.76405e-05
0.013902
0.0904859
2.20527e-05
0.0149316
0.097623
1.57107e-05
0.0156822
0.102774
-2.52116e-09
0.0160758
0.105474
-1.57154e-05
0.0160758
0.105474
-2.20574e-05
0.0156822
0.102774
-1.76447e-05
0.0149316
0.097623
-1.02366e-05
0.013902
0.0904859
0.0126868
0.0819982
-3.80816e-09
0.000124066
0.0225861
0.120998
-3.66897e-10
0.000188136
0.0246046
0.133608
0.000180665
0.0263037
0.144144
0.000110068
0.0275235
0.151717
-4.78594e-09
0.0281603
0.155678
-0.000110078
0.0281603
0.155678
-0.000180674
0.0275235
0.151717
-0.000188144
0.0263037
0.144144
-0.000124073
0.0246046
0.133608
0.0225861
0.120998
-6.60296e-09
0.000295243
0.0313192
0.148204
-4.1373e-10
0.00044024
0.0338909
0.163837
0.000415024
0.0360347
0.176804
0.000248843
0.0375511
0.186084
-7.30814e-09
0.0383379
0.190924
-0.000248858
0.0383379
0.190924
-0.000415037
0.0375511
0.186084
-0.000440252
0.0360347
0.176804
-0.000295253
0.0338909
0.163837
0.0313192
0.148204
-9.39083e-09
0.000508108
0.0373602
0.164684
-4.51796e-10
0.000746899
0.0401432
0.182397
0.000698661
0.0424336
0.196973
0.000416197
0.044029
0.207354
-1.00054e-08
0.0448506
0.212753
-0.000416217
0.0448506
0.212753
-0.000698679
0.044029
0.207354
-0.000746916
0.0424336
0.196973
-0.000508122
0.0401432
0.182397
0.0373602
0.164684
-1.2099e-08
0.000746586
0.0400543
0.171673
-5.24561e-10
0.001084
0.0427263
0.190693
0.00100853
0.0448883
0.206219
0.000598479
0.0463699
0.21722
-1.27573e-08
0.0471263
0.222924
-0.000598504
0.0471263
0.222924
-0.00100856
0.0463699
0.21722
-0.00108402
0.0448883
0.206219
-0.000746604
0.0427263
0.190693
0.0400543
0.171673
-1.46688e-08
0.000993344
0.0394182
0.170443
-7.05857e-10
0.00142976
0.0417333
0.190168
0.00132529
0.0435658
0.206137
0.000784475
0.0448006
0.217393
-1.54291e-08
0.0454253
0.223209
-0.000784505
0.0454253
0.223209
-0.00132532
0.0448006
0.217393
-0.00142979
0.0435658
0.206137
-0.000993365
0.0417333
0.190168
0.0394182
0.170443
-1.70242e-08
0.00123535
0.0359299
0.162225
-9.85223e-10
0.00177077
0.0377357
0.182205
0.00163713
0.0391319
0.19825
0.000967148
0.0400581
0.209494
-1.78928e-08
0.0405229
0.215284
-0.000967183
0.0405229
0.215284
-0.00163717
0.0400581
0.209494
-0.0017708
0.0391319
0.19825
-0.00123538
0.0377357
0.182205
0.0359299
0.162225
-1.9067e-08
0.00147677
0.0303331
0.148164
-1.32169e-09
0.00210938
0.0315773
0.168093
0.00194259
0.0325241
0.183959
0.00114434
0.0331465
0.195006
-1.99963e-08
0.0334573
0.200671
-0.00114438
0.0334573
0.200671
-0.00194263
0.0331465
0.195006
-0.00210941
0.0325241
0.183959
-0.0014768
0.0315773
0.168093
0.0303331
0.148164
-2.06849e-08
0.00173207
0.129298
-1.65848e-09
0.0234847
0.00245591
0.149024
0.0242039
0.00224883
0.164533
0.0247701
0.00131912
0.17525
0.0251513
-2.15873e-08
0.180723
0.0253418
-0.00131917
0.180723
0.0253418
-0.00224887
0.17525
0.0251513
-0.00245594
0.164533
0.0247701
-0.0017321
0.149024
0.0242039
0.129298
-2.18069e-08
0.0234847
2.10984e-06
0.00133745
0.0291973
-7.27576e-11
-2.70482e-07
0.00148507
0.0322248
1.32354e-07
0.00161345
0.0347755
1.47067e-07
0.00171144
0.0366207
-5.92777e-10
0.0017637
0.0375894
-1.48292e-07
0.0017637
0.0375894
-1.33516e-07
0.00171144
0.0366207
2.6933e-07
0.00161345
0.0347755
-2.1109e-06
0.00148507
0.0322248
0.00133745
0.0291973
-1.08832e-09
3.09431e-05
0.00479912
0.0785056
-4.30863e-11
4.00175e-05
0.00529696
0.086665
3.68648e-05
0.00572466
0.093515
2.18703e-05
0.0060424
0.0984579
-2.40799e-09
0.00621075
0.101049
-2.18751e-05
0.00621075
0.101049
-3.68692e-05
0.0060424
0.0984579
-4.00218e-05
0.00572466
0.093515
-3.09468e-05
0.00529696
0.0866649
0.00479912
0.0785056
-3.58392e-09
8.63452e-05
0.00926011
0.116451
-1.41884e-10
0.000122403
0.0101643
0.128705
0.000112993
0.0109343
0.138944
6.70731e-05
0.011496
0.14631
-4.68216e-09
0.0117921
0.150164
-6.70823e-05
0.0117921
0.150164
-0.000113001
0.011496
0.14631
-0.000122411
0.0109343
0.138944
-8.6352e-05
0.0101643
0.128705
0.00926011
0.116451
-6.19342e-09
0.000168072
0.0136093
0.143686
-2.62525e-10
0.000244066
0.0148498
0.159076
0.00022669
0.0158962
0.171859
0.000134633
0.0166482
0.181023
-7.22438e-09
0.017042
0.185808
-0.000134647
0.017042
0.185808
-0.000226703
0.0166482
0.181023
-0.000244078
0.0158962
0.171859
-0.000168082
0.0148498
0.159076
0.0136093
0.143686
-8.84297e-09
0.000273156
0.0170111
0.16101
-4.27281e-10
0.000398164
0.0184431
0.178678
0.00037057
0.019637
0.19326
0.000220029
0.0204827
0.20367
-9.90101e-09
0.0209225
0.209093
-0.000220048
0.0209225
0.209093
-0.000370588
0.0204827
0.20367
-0.00039818
0.019637
0.19326
-0.00027317
0.0184431
0.178678
0.0170111
0.16101
-1.14351e-08
0.000396207
0.0189653
0.169323
-6.46542e-10
0.000575671
0.0204215
0.188535
0.000535581
0.0216176
0.204278
0.000317755
0.0224524
0.215469
-1.26031e-08
0.022883
0.221281
-0.000317779
0.022883
0.221281
-0.000535604
0.0224524
0.215469
-0.000575691
0.0216176
0.204278
-0.000396224
0.0204215
0.188535
0.0189653
0.169323
-1.38886e-08
0.000529718
0.0192958
0.169583
-9.0476e-10
0.000766307
0.0206254
0.189727
0.0007121
0.0216973
0.206112
0.000422059
0.022434
0.217701
-1.52076e-08
0.0228108
0.223703
-0.000422088
0.0228108
0.223703
-0.000712128
0.022434
0.217701
-0.000766331
0.0216973
0.206112
-0.000529738
0.0206254
0.189727
0.0192958
0.169583
-1.61295e-08
0.000666929
0.0180968
0.162758
-1.18424e-09
0.000961931
0.0191887
0.183347
0.000892332
0.0200513
0.199966
0.00052813
0.0206352
0.211657
-1.75717e-08
0.0209314
0.217691
-0.000528164
0.0209314
0.217691
-0.000892363
0.0206352
0.211657
-0.000961959
0.0200513
0.199966
-0.000666951
0.0191887
0.183347
0.0180968
0.162758
-1.80725e-08
0.000807809
0.0156585
0.149794
-1.53771e-09
0.00115959
0.0164563
0.170473
0.00107141
0.0170744
0.187024
0.000632434
0.0174874
0.198592
-1.95405e-08
0.0176955
0.20454
-0.000632472
0.0176955
0.20454
-0.00107144
0.0174874
0.198592
-0.00115962
0.0170744
0.187024
-0.000807833
0.0164563
0.170473
0.0156585
0.149794
-1.96283e-08
0.000946969
0.13161
-1.94402e-09
0.0123993
0.00135144
0.152184
0.0128914
0.00124396
0.168437
0.0132781
0.000732115
0.179709
0.0135405
-2.0976e-08
0.185478
0.0136725
-0.000732156
0.185478
0.0136725
-0.001244
0.179709
0.0135405
-0.00135148
0.168437
0.0132782
-0.000946995
0.152184
0.0128914
0.13161
-2.07527e-08
0.0123993
-5.57762e-06
0.000584059
0.0286188
-1.04354e-10
-8.31425e-06
0.000642533
0.031585
-6.58406e-06
0.000691997
0.0340818
-3.6269e-06
0.000729599
0.0358881
-5.03416e-10
0.000749363
0.0368364
3.62583e-06
0.000749364
0.0368364
6.58304e-06
0.000729599
0.0358881
8.31331e-06
0.000691997
0.0340818
5.57666e-06
0.000642533
0.031585
0.00058406
0.0286188
-9.44203e-10
-8.41808e-07
0.00203499
0.0770555
-1.73681e-10
-1.86162e-06
0.00224185
0.0850667
-5.9425e-07
0.00241813
0.0917876
1.91243e-07
0.00254916
0.0966376
-2.03312e-09
0.00261858
0.0991799
-1.95064e-07
0.00261858
0.0991799
5.90396e-07
0.00254916
0.0966376
1.85765e-06
0.00241813
0.0917876
8.38475e-07
0.00224186
0.0850666
0.00203499
0.0770555
-3.12154e-09
1.78108e-05
0.00395827
0.11451
-2.64512e-10
2.63525e-05
0.00435314
0.126585
2.58474e-05
0.00468965
0.136673
1.59748e-05
0.00493656
0.143932
-4.0508e-09
0.00506704
0.147731
-1.59828e-05
0.00506704
0.147731
-2.58549e-05
0.00493656
0.143932
-2.63593e-05
0.00468966
0.136673
-1.78168e-05
0.00435315
0.126585
0.00395828
0.11451
-5.43058e-09
5.10456e-05
0.00593269
0.141661
-3.90096e-10
7.5993e-05
0.00650132
0.156902
7.23411e-05
0.00698337
0.169569
4.36754e-05
0.00733277
0.178656
-6.32659e-09
0.00751657
0.183402
-4.36878e-05
0.00751657
0.183402
-7.23526e-05
0.00733277
0.178656
-7.60033e-05
0.00698337
0.169569
-5.10544e-05
0.00650133
0.156902
0.00593269
0.141661
-7.79131e-09
9.76315e-05
0.00758578
0.159259
-5.44398e-10
0.000144627
0.00827288
0.17686
0.00013657
0.00884993
0.191401
8.18731e-05
0.00926297
0.201795
-8.74412e-09
0.00947896
0.207213
-8.18902e-05
0.00947896
0.207213
-0.000136586
0.00926298
0.201795
-0.000144641
0.00884993
0.191401
-9.76432e-05
0.00827288
0.17686
0.00758578
0.159259
-1.01134e-08
0.000155425
0.00865149
0.168102
-7.37e-10
0.00022863
0.00938078
0.187354
0.000214936
0.00998516
0.203157
0.00012839
0.010412
0.214406
-1.11863e-08
0.0106336
0.220255
-0.000128411
0.0106336
0.220255
-0.000214956
0.010412
0.214406
-0.000228648
0.00998516
0.203157
-0.000155439
0.00938079
0.187354
0.0086515
0.168102
-1.23177e-08
0.000221183
0.00899288
0.16902
-1.00838e-09
0.000323394
0.00968637
0.189319
0.000303052
0.0102513
0.205866
0.000180579
0.0106446
0.217591
-1.35336e-08
0.0108472
0.22367
-0.000180606
0.0108472
0.22367
-0.000303076
0.0106446
0.217591
-0.000323415
0.0102513
0.205866
-0.0002212
0.00968638
0.189319
0.00899289
0.16902
-1.43284e-08
0.000291865
0.00859977
0.162859
-1.34969e-09
0.000424955
0.00919267
0.183708
0.000396956
0.0096665
0.200579
0.000235951
0.00999148
0.212471
-1.56576e-08
0.0101575
0.218617
-0.000235982
0.0101575
0.218617
-0.000396984
0.00999148
0.212471
-0.000424979
0.00966651
0.200579
-0.000291885
0.00919268
0.183708
0.00859978
0.162859
-1.6066e-08
0.000367634
0.00756829
0.150458
-1.73189e-09
0.000531585
0.00802098
0.171481
0.000493807
0.00837531
0.188353
0.000292465
0.00861481
0.20017
-1.74179e-08
0.00873615
0.206253
-0.000292499
0.00873615
0.206253
-0.000493838
0.00861481
0.20017
-0.000531612
0.00837531
0.188353
-0.000367656
0.00802098
0.171481
0.0075683
0.150458
-1.7453e-08
0.00044359
0.132656
-2.0789e-09
0.00607865
0.000637647
0.153639
0.00637192
0.000590072
0.170256
0.00660349
0.000348408
0.181804
0.00676149
-1.86929e-08
0.187721
0.00684141
-0.000348444
0.187721
0.00684141
-0.000590105
0.181804
0.00676149
-0.000637675
0.170256
0.00660349
-0.000443613
0.153639
0.00637193
0.132656
-1.84447e-08
0.00607865
-8.45219e-07
0.000190451
0.0284292
-1.05583e-10
-1.63907e-06
0.00021095
0.0313749
-1.19114e-06
0.000228785
0.0338526
-6.35593e-07
0.000242783
0.0356448
-4.05433e-10
0.000250251
0.0365855
6.34783e-07
0.000250251
0.0365855
1.19034e-06
0.000242783
0.0356448
1.6383e-06
0.000228785
0.0338526
8.44428e-07
0.000210951
0.0313749
0.000190451
0.0284292
-7.58046e-10
1.85759e-06
0.000743309
0.0765008
-2.94032e-10
1.98517e-06
0.000823103
0.0844544
2.15038e-06
0.000892202
0.091124
1.40844e-06
0.000944486
0.0959366
-1.66554e-09
0.000972395
0.0984591
-1.41174e-06
0.000972395
0.0984591
-2.15357e-06
0.000944487
0.0959366
-1.988e-06
0.000892204
0.091124
-1.86026e-06
0.000823105
0.0844544
0.000743311
0.0765008
-2.53808e-09
1.00156e-05
0.00152834
0.113715
-4.15584e-10
1.4066e-05
0.00168919
0.125715
1.33568e-05
0.00182782
0.135738
8.09317e-06
0.00193088
0.142951
-3.27448e-09
0.00198571
0.146726
-8.09961e-06
0.00198571
0.146726
-1.33629e-05
0.00193088
0.142951
-1.40715e-05
0.00182783
0.135738
-1.00206e-05
0.00168919
0.125715
0.00152834
0.113715
-4.4626e-09
2.42798e-05
0.00237702
0.140788
-5.2005e-10
3.53778e-05
0.00261864
0.155962
3.33248e-05
0.00282552
0.168573
1.99949e-05
0.00297726
0.177623
-5.14834e-09
0.00305759
0.182351
-2.0005e-05
0.00305759
0.182351
-3.33343e-05
0.00297726
0.177623
-3.53863e-05
0.00282553
0.168573
-2.42871e-05
0.00261864
0.155962
0.00237702
0.140788
-6.44798e-09
4.47204e-05
0.00312827
0.158463
-6.52381e-10
6.56798e-05
0.003431
0.176026
6.17695e-05
0.00368782
0.190543
3.69447e-05
0.00387379
0.200923
-7.17593e-09
0.00397166
0.206335
-3.69587e-05
0.00397166
0.206335
-6.17825e-05
0.00387379
0.200923
-6.56913e-05
0.00368782
0.190543
-4.47301e-05
0.00343101
0.176026
0.00312828
0.158463
-8.41038e-09
7.07737e-05
0.00365463
0.167505
-8.37823e-10
0.000103894
0.00398648
0.186766
9.75796e-05
0.00426447
0.202587
5.82579e-05
0.00446313
0.213856
-9.24619e-09
0.00456695
0.219718
-5.8276e-05
0.00456695
0.219718
-9.75962e-05
0.00446313
0.213856
-0.000103909
0.00426448
0.202587
-7.07858e-05
0.00398649
0.186766
0.00365464
0.167505
-1.02805e-08
0.000101246
0.00387818
0.168696
-1.0701e-09
0.000148224
0.00420315
0.189056
0.000138996
0.00447103
0.205669
8.28551e-05
0.00465976
0.21745
-1.12503e-08
0.00475761
0.223563
-8.2877e-05
0.00475761
0.223563
-0.000139016
0.00465976
0.21745
-0.000148242
0.00447104
0.205669
-0.00010126
0.00420316
0.189056
0.00387819
0.168696
-1.19927e-08
0.000134845
0.00377599
0.162826
-1.32176e-09
0.000196826
0.00406176
0.183787
0.000184101
0.00429296
0.200769
0.000109515
0.00445334
0.212752
-1.30765e-08
0.00453574
0.218949
-0.00010954
0.00453575
0.218949
-0.000184124
0.00445335
0.212752
-0.000196846
0.00429297
0.200769
-0.000134861
0.00406177
0.183787
0.003776
0.162826
-1.34802e-08
0.000171311
0.00337631
0.150687
-1.61196e-09
0.000248268
0.00360107
0.171865
0.000230986
0.00377859
0.188885
0.000136948
0.00389965
0.200818
-1.46033e-08
0.00396127
0.206965
-0.000136977
0.00396127
0.206965
-0.000231012
0.00389965
0.200818
-0.000248291
0.00377859
0.188885
-0.000171329
0.00360108
0.171865
0.00337632
0.150687
-1.46825e-08
0.000206091
0.133073
-1.9288e-09
0.00275316
0.000297669
0.154246
0.00290266
0.000276415
0.171035
0.003021
0.000163566
0.182714
0.00310212
-1.57222e-08
0.188702
0.00314332
-0.000163596
0.188702
0.00314332
-0.000276443
0.182714
0.00310213
-0.000297693
0.171035
0.00302101
-0.00020611
0.154246
0.00290267
0.133073
-1.55839e-08
0.00275317
-1.37981e-06
7.7746e-05
0.0283528
-6.34698e-11
-1.98616e-06
8.53598e-05
0.0312901
-1.59389e-06
9.18745e-05
0.0337603
-8.7899e-07
9.69477e-05
0.0355471
-2.9366e-10
9.96281e-05
0.036485
8.78408e-07
9.96281e-05
0.036485
1.59332e-06
9.69479e-05
0.0355471
1.98559e-06
9.18748e-05
0.0337603
1.37925e-06
8.53602e-05
0.0312901
7.77463e-05
0.0283528
-5.73532e-10
-1.61125e-06
0.000292731
0.0762874
-1.29019e-10
-2.4233e-06
0.000323358
0.0842172
-1.93761e-06
0.000349815
0.0908656
-1.02625e-06
0.000369878
0.0956628
-1.25053e-09
0.000380578
0.0981772
1.02379e-06
0.000380578
0.0981772
1.93524e-06
0.000369879
0.0956627
2.42106e-06
0.000349816
0.0908656
1.60919e-06
0.000323359
0.0842172
0.000292732
0.0762874
-1.95891e-09
8.78344e-07
0.000602931
0.113404
-2.59795e-10
1.16071e-06
0.00066702
0.125371
1.36788e-06
0.00072227
0.135365
9.56466e-07
0.000763553
0.142558
-2.49112e-09
0.000785567
0.146322
-9.61354e-07
0.000785567
0.146322
-1.37251e-06
0.000763554
0.142558
-1.16488e-06
0.000722272
0.135365
-8.8181e-07
0.000667023
0.125371
0.000602934
0.113403
-3.43293e-09
6.05867e-06
0.000949647
0.140435
-4.13034e-10
8.96196e-06
0.0010491
0.155577
8.68509e-06
0.00113451
0.168162
5.32e-06
0.00119755
0.177192
-3.9602e-09
0.00123103
0.18191
-5.32775e-06
0.00123103
0.18191
-8.69236e-06
0.00119755
0.177192
-8.96847e-06
0.00113451
0.168162
-6.06428e-06
0.0010491
0.155577
0.000949651
0.140435
-5.0513e-09
1.41767e-05
0.00126922
0.158129
-5.76641e-10
2.10233e-05
0.00139763
0.175671
2.00135e-05
0.00150703
0.190171
1.20746e-05
0.00158681
0.200542
-5.57209e-09
0.00162895
0.20595
-1.20855e-05
0.00162896
0.20595
-2.00236e-05
0.00158681
0.200542
-2.10322e-05
0.00150703
0.190171
-1.41843e-05
0.00139763
0.175671
0.00126923
0.158129
-6.64947e-09
2.49959e-05
0.00150625
0.167243
-7.5517e-10
3.69737e-05
0.00165097
0.1865
3.49923e-05
0.00177283
0.202323
2.10006e-05
0.00186056
0.213596
-7.23777e-09
0.0019066
0.219462
-2.10147e-05
0.0019066
0.219462
-3.50053e-05
0.00186056
0.213596
-3.69851e-05
0.00177283
0.202323
-2.50054e-05
0.00165097
0.1865
0.00150625
0.167243
-8.17677e-09
3.80751e-05
0.00162245
0.168541
-9.70409e-10
5.61294e-05
0.00176791
0.188921
5.29446e-05
0.00188851
0.205556
3.16801e-05
0.00197413
0.217358
-8.86481e-09
0.00201872
0.223482
-3.16973e-05
0.00201872
0.223482
-5.29605e-05
0.00197414
0.217358
-5.61432e-05
0.00188852
0.205556
-3.80864e-05
0.00176791
0.188921
0.00162246
0.168541
-9.58589e-09
5.2931e-05
0.00160143
0.162794
-1.22692e-09
7.77529e-05
0.00173258
0.183798
7.30756e-05
0.00183938
0.200823
4.35983e-05
0.001914
0.212842
-1.03567e-08
0.0019525
0.219058
-4.36184e-05
0.0019525
0.219058
-7.30941e-05
0.00191401
0.212842
-7.77688e-05
0.00183938
0.200823
-5.29438e-05
0.00173259
0.183798
0.00160144
0.162794
-1.08212e-08
6.95335e-05
0.00144911
0.150769
-1.51754e-09
0.000101261
0.00155495
0.172011
9.45581e-05
0.00163904
0.189092
5.619e-05
0.00169676
0.201074
-1.16151e-08
0.00172623
0.207247
-5.62125e-05
0.00172624
0.207247
-9.45787e-05
0.00169676
0.201074
-0.000101279
0.00163905
0.189092
-6.95476e-05
0.00155495
0.172011
0.00144911
0.150769
-1.18295e-08
8.56867e-05
0.133243
-1.7716e-09
0.0011933
0.000124394
0.154496
0.00126562
0.000115951
0.171359
0.0013231
6.87695e-05
0.183096
0.00136265
-1.25628e-08
0.189115
0.0013828
-6.87938e-05
0.189115
0.0013828
-0.000115974
0.183096
0.00136266
-0.000124413
0.171359
0.0013231
-8.57017e-05
0.154496
0.00126562
0.133243
-1.25855e-08
0.00119331
-3.98527e-07
2.04064e-05
0.0283328
-5.82213e-11
-6.12856e-07
2.26023e-05
0.0312677
-4.90954e-07
2.4605e-05
0.0337356
-2.71956e-07
2.62508e-05
0.0355207
-1.94202e-10
2.7138e-05
0.0364576
2.71567e-07
2.7138e-05
0.0364576
4.90568e-07
2.62509e-05
0.0355206
6.12462e-07
2.46053e-05
0.0337356
3.98128e-07
2.26026e-05
0.0312677
2.04067e-05
0.0283328
-4.12924e-10
-5.07763e-07
9.13118e-05
0.076217
-1.39633e-10
-8.62885e-07
0.000101643
0.0841385
-7.17266e-07
0.000110831
0.0907792
-3.90885e-07
0.000117977
0.0955707
-8.71717e-10
0.000121833
0.0980821
3.89163e-07
0.000121833
0.0980821
7.15613e-07
0.000117978
0.0955707
8.61293e-07
0.000110832
0.0907792
5.06265e-07
0.000101644
0.0841385
9.13127e-05
0.076217
-1.4404e-09
3.56954e-07
0.000202734
0.113292
-2.36331e-10
3.37733e-07
0.000225855
0.125247
3.71936e-07
0.000246152
0.13523
2.58667e-07
0.000261584
0.142414
-1.78245e-09
0.000269884
0.146174
-2.62166e-07
0.000269885
0.146174
-3.75255e-07
0.000261585
0.142414
-3.40751e-07
0.000246153
0.13523
-3.59475e-07
0.000225857
0.125247
0.000202736
0.113292
-2.54684e-09
2.28643e-06
0.000334185
0.140301
-3.51944e-10
3.22818e-06
0.000371665
0.15543
3.07346e-06
0.000404301
0.168004
1.86724e-06
0.000428731
0.177026
-2.88119e-09
0.000441804
0.18174
-1.87288e-06
0.000441805
0.18174
-3.07875e-06
0.000428733
0.177026
-3.23297e-06
0.000404303
0.168004
-2.29055e-06
0.000371668
0.15543
0.000334188
0.140301
-3.78177e-09
5.43959e-06
0.000461404
0.157996
-4.8673e-10
7.92765e-06
0.000511437
0.175529
7.49088e-06
0.000554574
0.190021
4.5028e-06
0.000586426
0.200387
-4.10424e-09
0.000603367
0.205792
-4.51082e-06
0.000603368
0.205792
-7.49834e-06
0.000586428
0.200387
-7.93429e-06
0.000554578
0.190021
-5.4452e-06
0.000511441
0.175529
0.000461408
0.157996
-5.01778e-09
9.77315e-06
0.000561569
0.167133
-6.46287e-10
1.43608e-05
0.000619528
0.186388
1.35494e-05
0.000668871
0.202209
8.11894e-06
0.000704806
0.213483
-5.38428e-09
0.000723782
0.219349
-8.12944e-06
0.000723783
0.219349
-1.35591e-05
0.000704808
0.213483
-1.43693e-05
0.000668875
0.202209
-9.78024e-06
0.000619532
0.186388
0.000561574
0.167133
-6.21245e-09
1.51446e-05
0.000617428
0.16847
-8.28851e-10
2.22902e-05
0.000677075
0.188856
2.10068e-05
0.000727059
0.205499
1.25638e-05
0.000762922
0.217308
-6.65049e-09
0.000781702
0.223437
-1.25767e-05
0.000781703
0.223437
-2.10187e-05
0.000762924
0.217308
-2.23005e-05
0.000727063
0.205499
-1.51531e-05
0.00067708
0.188856
0.000617434
0.16847
-7.32728e-09
2.13695e-05
0.000619954
0.16277
-1.0188e-09
3.14056e-05
0.000674922
0.18379
2.95201e-05
0.000720109
0.200832
1.76137e-05
0.000751978
0.212865
-7.82918e-09
0.000768499
0.219089
-1.7629e-05
0.0007685
0.219089
-2.9534e-05
0.000751981
0.212864
-3.14176e-05
0.000720113
0.200832
-2.13792e-05
0.000674927
0.18379
0.000619959
0.16277
-8.32002e-09
2.83725e-05
0.000569297
0.150792
-1.21892e-09
4.13584e-05
0.000614633
0.172058
3.86494e-05