/*--------------------------------*- C++ -*----------------------------------*\
| =========                 |                                                 |
| \\      /  F ield         | OpenFOAM: The Open Source CFD Toolbox           |
|  \\    /   O peration     | Version:  2106                                  |
|   \\  /    A nd           | Website:  www.openfoam.com                      |
|    \\/     M anipulation  |                                                 |
\*---------------------------------------------------------------------------*/
FoamFile
{
    version     2.0;
    format      ascii;
    arch        "LSB;label=32;scalar=64";
    class       volVectorField;
    location    "1";
    object      U;
}
// * * * * * * * * * * * * * * * * * * * * * * * * * * * * * * * * * * * * * //

dimensions      [0 1 -1 0 0 0 0];

internalField   nonuniform List<vector> 
10000
(
(0.0630549 0.0743 0.347851)
(0.0537783 0.0844995 0.362445)
(0.0401625 0.0937226 0.3739)
(0.0249153 0.100155 0.381811)
(0.00844368 0.103481 0.385831)
(-0.00844369 0.103481 0.385831)
(-0.0249153 0.100155 0.381811)
(-0.0401625 0.0937226 0.3739)
(-0.0537783 0.0844995 0.362445)
(-0.0630549 0.0743 0.347851)
(0.173413 0.205736 0.733606)
(0.146383 0.233192 0.75341)
(0.109284 0.257341 0.768164)
(0.0676143 0.274058 0.778139)
(0.0228873 0.28268 0.783126)
(-0.0228873 0.28268 0.783126)
(-0.0676143 0.274058 0.778139)
(-0.109284 0.257341 0.768164)
(-0.146383 0.233192 0.75341)
(-0.173413 0.205736 0.733606)
(0.224384 0.266436 0.931052)
(0.187289 0.298394 0.947002)
(0.13893 0.3263 0.958151)
(0.0855314 0.345391 0.965511)
(0.028881 0.355174 0.969121)
(-0.028881 0.355174 0.969121)
(-0.0855314 0.345391 0.965511)
(-0.13893 0.3263 0.958151)
(-0.187289 0.298394 0.947002)
(-0.224384 0.266436 0.931052)
(0.239523 0.283954 1.03094)
(0.197966 0.314068 1.04152)
(0.145944 0.340417 1.04824)
(0.0894334 0.358241 1.05254)
(0.0301302 0.367315 1.05459)
(-0.0301302 0.367315 1.05459)
(-0.0894334 0.358241 1.05254)
(-0.145944 0.340417 1.04824)
(-0.197966 0.314068 1.04152)
(-0.239523 0.283954 1.03094)
(0.237572 0.281141 1.07966)
(0.194742 0.307345 1.08566)
(0.142812 0.330412 1.08881)
(0.0871632 0.345881 1.09071)
(0.0293088 0.353708 1.09156)
(-0.0293089 0.353708 1.09156)
(-0.0871632 0.345881 1.09071)
(-0.142812 0.330412 1.08881)
(-0.194742 0.307345 1.08566)
(-0.237572 0.281141 1.07966)
(0.226483 0.267529 1.1009)
(0.184247 0.289105 1.1035)
(0.134476 0.308252 1.10416)
(0.0817729 0.321017 1.10441)
(0.027448 0.327439 1.10446)
(-0.0274481 0.327439 1.10446)
(-0.0817729 0.321017 1.10441)
(-0.134476 0.308252 1.10416)
(-0.184247 0.289105 1.1035)
(-0.226483 0.267529 1.1009)
(0.210023 0.247454 1.10756)
(0.169564 0.264161 1.10784)
(0.123204 0.279134 1.10692)
(0.0746567 0.289098 1.10615)
(0.0250174 0.29409 1.10571)
(-0.0250175 0.29409 1.10571)
(-0.0746567 0.289098 1.10615)
(-0.123205 0.279134 1.10692)
(-0.169564 0.264161 1.10784)
(-0.210023 0.247454 1.10756)
(0.190542 0.223659 1.10686)
(0.152651 0.235542 1.10568)
(0.110448 0.24633 1.10386)
(0.0667091 0.253544 1.10254)
(0.0223188 0.257158 1.10185)
(-0.0223189 0.257158 1.10185)
(-0.0667092 0.253544 1.10254)
(-0.110448 0.24633 1.10386)
(-0.152652 0.235542 1.10568)
(-0.190542 0.223659 1.10686)
(0.169584 0.197947 1.10285)
(0.134891 0.205193 1.10077)
(0.0972029 0.211922 1.09854)
(0.0585256 0.216554 1.09697)
(0.0195511 0.218894 1.09618)
(-0.0195512 0.218894 1.09618)
(-0.0585257 0.216554 1.09697)
(-0.097203 0.211922 1.09854)
(-0.134891 0.205193 1.10077)
(-0.169584 0.197947 1.10285)
(0.148318 0.171982 1.09776)
(0.117493 0.173089 1.09521)
(0.0840794 0.176394 1.09284)
(0.0504374 0.178803 1.09123)
(0.0168192 0.180041 1.09043)
(-0.0168194 0.180041 1.09043)
(-0.0504375 0.178803 1.09123)
(-0.0840795 0.176394 1.09284)
(-0.117493 0.173089 1.09521)
(-0.148318 0.171982 1.09776)
(0.011285 0.0144152 0.268638)
(0.00948092 0.0177322 0.280997)
(0.0071589 0.0203968 0.291118)
(0.0045318 0.0222235 0.298163)
(0.00155055 0.0231753 0.301769)
(-0.00155057 0.0231753 0.301769)
(-0.00453181 0.0222235 0.298163)
(-0.00715891 0.0203968 0.291118)
(-0.00948093 0.0177322 0.280997)
(-0.011285 0.0144152 0.268638)
(0.0548543 0.0663709 0.6345)
(0.0471032 0.0798529 0.656618)
(0.0360494 0.0914053 0.674356)
(0.0227906 0.099591 0.686554)
(0.00779915 0.103888 0.692746)
(-0.00779919 0.103888 0.692746)
(-0.0227907 0.099591 0.686554)
(-0.0360494 0.0914053 0.674356)
(-0.0471032 0.0798529 0.656618)
(-0.0548544 0.0663709 0.6345)
(0.0985717 0.117737 0.883405)
(0.0840997 0.139246 0.907414)
(0.0640252 0.157706 0.926245)
(0.0402348 0.170734 0.939039)
(0.0137279 0.177537 0.945482)
(-0.0137279 0.177537 0.945482)
(-0.0402349 0.170734 0.939039)
(-0.0640253 0.157706 0.926245)
(-0.0840997 0.139246 0.907414)
(-0.0985717 0.117737 0.883405)
(0.134947 0.159998 1.05248)
(0.114158 0.186341 1.07465)
(0.0863504 0.208841 1.09162)
(0.0539571 0.224608 1.103)
(0.0183577 0.232796 1.10869)
(-0.0183578 0.232796 1.10869)
(-0.0539572 0.224608 1.103)
(-0.0863505 0.208841 1.09162)
(-0.114158 0.186341 1.07465)
(-0.134947 0.159998 1.05248)
(0.160996 0.189797 1.1664)
(0.135029 0.217892 1.18516)
(0.101499 0.241728 1.19914)
(0.0630967 0.258311 1.2084)
(0.0214121 0.266876 1.21298)
(-0.0214122 0.266876 1.21298)
(-0.0630968 0.258311 1.2084)
(-0.101499 0.241728 1.19914)
(-0.13503 0.217892 1.18516)
(-0.160996 0.189797 1.1664)
(0.176761 0.207307 1.24203)
(0.147 0.234648 1.25697)
(0.109832 0.257643 1.26777)
(0.0679515 0.273533 1.27482)
(0.0230048 0.281697 1.27828)
(-0.023005 0.281697 1.27828)
(-0.0679516 0.273533 1.27482)
(-0.109832 0.257643 1.26777)
(-0.147 0.234648 1.25697)
(-0.176761 0.207307 1.24203)
(0.183311 0.21388 1.29129)
(0.151147 0.238552 1.3026)
(0.11227 0.259059 1.31051)
(0.0691466 0.273144 1.31559)
(0.023357 0.280348 1.31806)
(-0.0233571 0.280348 1.31806)
(-0.0691467 0.273144 1.31559)
(-0.11227 0.259059 1.31051)
(-0.151147 0.238552 1.3026)
(-0.183311 0.21388 1.29129)
(0.181995 0.21116 1.32257)
(0.148765 0.231772 1.33077)
(0.109874 0.248626 1.33629)
(0.0673832 0.260148 1.33976)
(0.022713 0.266022 1.34142)
(-0.0227132 0.266022 1.34142)
(-0.0673834 0.260148 1.33976)
(-0.109874 0.248626 1.33629)
(-0.148765 0.231772 1.33077)
(-0.181995 0.21116 1.32257)
(0.174284 0.200833 1.34177)
(0.141282 0.216444 1.34747)
(0.103757 0.228847 1.35114)
(0.0633602 0.237345 1.35338)
(0.0213117 0.241673 1.35443)
(-0.0213119 0.241673 1.35443)
(-0.0633604 0.237345 1.35338)
(-0.103758 0.228847 1.35114)
(-0.141282 0.216444 1.34747)
(-0.174284 0.200833 1.34177)
(0.161754 0.185728 1.35303)
(0.130255 0.193725 1.35689)
(0.0948761 0.201326 1.35918)
(0.0576452 0.206569 1.3605)
(0.0193419 0.209237 1.3611)
(-0.0193421 0.209237 1.3611)
(-0.0576455 0.206569 1.3605)
(-0.0948763 0.201326 1.35918)
(-0.130255 0.193725 1.35689)
(-0.161754 0.185728 1.35303)
(0.00113138 0.00126356 0.158873)
(0.00114256 0.00161357 0.167238)
(0.000890667 0.00202512 0.174223)
(0.000596201 0.00232996 0.179167)
(0.000207751 0.00249888 0.181727)
(-0.000207765 0.00249888 0.181727)
(-0.000596214 0.00232995 0.179167)
(-0.000890679 0.00202511 0.174223)
(-0.00114257 0.00161356 0.167238)
(-0.00113139 0.00126355 0.158873)
(0.0181676 0.0210815 0.445101)
(0.0163381 0.0257194 0.465462)
(0.012787 0.0300838 0.482184)
(0.00821257 0.0333073 0.49392)
(0.00282989 0.035039 0.499961)
(-0.00282993 0.035039 0.499961)
(-0.00821261 0.0333073 0.49392)
(-0.012787 0.0300838 0.482184)
(-0.0163382 0.0257194 0.465462)
(-0.0181677 0.0210814 0.445101)
(0.0414138 0.048205 0.690588)
(0.0365769 0.0579149 0.718381)
(0.0284164 0.0667714 0.740842)
(0.0181017 0.0732476 0.756476)
(0.00621514 0.0766964 0.764483)
(-0.00621521 0.0766964 0.764483)
(-0.0181018 0.0732475 0.756476)
(-0.0284165 0.0667714 0.740842)
(-0.036577 0.0579149 0.718381)
(-0.0414139 0.048205 0.690588)
(0.0664961 0.0774619 0.894797)
(0.0579606 0.0917606 0.926222)
(0.0446972 0.104554 0.951195)
(0.0282907 0.11381 0.968431)
(0.00968408 0.118704 0.977214)
(-0.00968419 0.118704 0.977213)
(-0.0282908 0.11381 0.968431)
(-0.0446973 0.104554 0.951195)
(-0.0579607 0.0917606 0.926221)
(-0.0664962 0.0774619 0.894797)
(0.0889056 0.103449 1.06119)
(0.0766148 0.120857 1.09344)
(0.058664 0.136202 1.11863)
(0.0369224 0.147198 1.13587)
(0.0126045 0.152974 1.14461)
(-0.0126046 0.152974 1.14461)
(-0.0369225 0.147198 1.13587)
(-0.0586642 0.136202 1.11863)
(-0.0766149 0.120857 1.09344)
(-0.0889057 0.103449 1.06119)
(0.106381 0.123463 1.1947)
(0.0907138 0.142215 1.22588)
(0.0689849 0.158519 1.24982)
(0.0431924 0.170098 1.26607)
(0.0147076 0.176145 1.27427)
(-0.0147077 0.176145 1.27427)
(-0.0431926 0.170098 1.26607)
(-0.0689851 0.158519 1.24982)
(-0.090714 0.142215 1.22588)
(-0.106381 0.123463 1.1947)
(0.118064 0.136529 1.30051)
(0.0996552 0.154924 1.32945)
(0.0752766 0.17068 1.35132)
(0.0468972 0.181781 1.36605)
(0.0159301 0.187545 1.37344)
(-0.0159303 0.187545 1.37344)
(-0.0468974 0.181781 1.36604)
(-0.0752768 0.17068 1.35132)
(-0.0996554 0.154924 1.32945)
(-0.118065 0.136529 1.30051)
(0.123829 0.142534 1.38342)
(0.103471 0.159082 1.40954)
(0.0776409 0.173007 1.42898)
(0.0481352 0.182744 1.44197)
(0.0163113 0.187777 1.44846)
(-0.0163115 0.187777 1.44846)
(-0.0481355 0.182744 1.44197)
(-0.0776411 0.173007 1.42898)
(-0.103471 0.159082 1.40954)
(-0.12383 0.142534 1.38342)
(0.124078 0.141917 1.44758)
(0.102657 0.15543 1.47076)
(0.0764959 0.16647 1.48775)
(0.0471815 0.174156 1.49899)
(0.0159472 0.178112 1.50458)
(-0.0159475 0.178112 1.50458)
(-0.0471817 0.174156 1.49899)
(-0.0764961 0.16647 1.48775)
(-0.102657 0.15543 1.47076)
(-0.124078 0.141917 1.44758)
(0.119633 0.136509 1.49637)
(0.098014 0.144633 1.51711)
(0.0723167 0.151979 1.53174)
(0.0443271 0.157068 1.54128)
(0.0149368 0.159673 1.54598)
(-0.0149371 0.159673 1.54598)
(-0.0443274 0.157068 1.54128)
(-0.0723169 0.151979 1.53174)
(-0.0980142 0.144633 1.51711)
(-0.119634 0.136509 1.49637)
(0.00071926 0.000944566 0.13896)
(0.000562256 0.00118434 0.145819)
(0.000385101 0.00135441 0.151405)
(0.000238849 0.00145508 0.155326)
(7.99862e-05 0.00150548 0.157348)
(-7.99988e-05 0.00150548 0.157348)
(-0.000238861 0.00145508 0.155326)
(-0.000385112 0.0013544 0.151405)
(-0.000562265 0.00118434 0.145819)
(-0.000719268 0.00094456 0.13896)
(0.00710258 0.00849231 0.398465)
(0.00616795 0.0104675 0.416671)
(0.00474329 0.0121768 0.431409)
(0.00302631 0.0134041 0.441725)
(0.00103936 0.014057 0.447033)
(-0.0010394 0.014057 0.447033)
(-0.00302635 0.0134041 0.441725)
(-0.00474333 0.0121768 0.431409)
(-0.00616798 0.0104675 0.416671)
(-0.00710261 0.0084923 0.398465)
(0.0174211 0.0205692 0.633408)
(0.015198 0.0250445 0.660286)
(0.0117626 0.0289724 0.681876)
(0.00749403 0.0318244 0.696925)
(0.00257363 0.0333415 0.704649)
(-0.0025737 0.0333415 0.704649)
(-0.0074941 0.0318243 0.696925)
(-0.0117627 0.0289724 0.681876)
(-0.0151981 0.0250445 0.660286)
(-0.0174211 0.0205691 0.633408)
(0.0298926 0.0350947 0.84186)
(0.0259932 0.0422199 0.874706)
(0.0200915 0.0484728 0.900844)
(0.0127598 0.0530082 0.918973)
(0.00437586 0.0554136 0.928248)
(-0.00437597 0.0554136 0.928248)
(-0.0127599 0.0530082 0.918973)
(-0.0200916 0.0484727 0.900844)
(-0.0259933 0.0422198 0.874706)
(-0.0298926 0.0350947 0.84186)
(0.0424482 0.049613 1.02378)
(0.0366835 0.0589331 1.06015)
(0.0282409 0.0670658 1.0888)
(0.0178644 0.0729353 1.10856)
(0.00611482 0.0760351 1.11864)
(-0.00611495 0.0760351 1.11864)
(-0.0178645 0.0729353 1.10856)
(-0.028241 0.0670658 1.0888)
(-0.0366836 0.058933 1.06015)
(-0.0424482 0.0496129 1.02378)
(0.0535833 0.0623505 1.18033)
(0.0459553 0.07306 1.21819)
(0.0351925 0.0823181 1.24768)
(0.0221645 0.0889557 1.26791)
(0.00757044 0.0924442 1.27819)
(-0.00757061 0.0924442 1.27819)
(-0.0221646 0.0889557 1.26791)
(-0.0351926 0.0823181 1.24768)
(-0.0459555 0.07306 1.21819)
(-0.0535834 0.0623504 1.18033)
(0.062303 0.0721563 1.31333)
(0.0529784 0.083293 1.35107)
(0.0403281 0.0927982 1.38012)
(0.0252813 0.0995625 1.39995)
(0.00861521 0.103099 1.41)
(-0.00861541 0.103099 1.41)
(-0.0252815 0.0995625 1.39995)
(-0.0403282 0.0927982 1.38012)
(-0.0529785 0.083293 1.35107)
(-0.0623031 0.0721562 1.31333)
(0.0680098 0.0783415 1.42484)
(0.0573006 0.0889222 1.46126)
(0.0433381 0.097805 1.489)
(0.0270368 0.104075 1.50783)
(0.00919107 0.107337 1.51733)
(-0.0091913 0.107337 1.51733)
(-0.027037 0.104075 1.50783)
(-0.0433383 0.097805 1.489)
(-0.0573008 0.0889222 1.46126)
(-0.06801 0.0783415 1.42484)
(0.0705058 0.0806398 1.51683)
(0.0588371 0.0897766 1.55126)
(0.0441839 0.0972321 1.57718)
(0.0274156 0.102457 1.59461)
(0.00929448 0.10516 1.60336)
(-0.00929473 0.10516 1.60336)
(-0.0274159 0.102457 1.59461)
(-0.0441841 0.0972321 1.57718)
(-0.0588374 0.0897766 1.55126)
(-0.0705059 0.0806398 1.51683)
(0.0699725 0.0798467 1.59102)
(0.0577793 0.0859197 1.62372)
(0.0429478 0.0911977 1.64743)
(0.0264713 0.0948613 1.66316)
(0.00894458 0.0967419 1.67099)
(-0.00894485 0.0967419 1.67099)
(-0.0264716 0.0948613 1.66316)
(-0.0429481 0.0911977 1.64743)
(-0.0577795 0.0859197 1.62372)
(-0.0699727 0.0798467 1.59102)
(0.000131774 0.00014417 0.127936)
(0.000122043 0.000188945 0.134327)
(9.01805e-05 0.000234796 0.139521)
(6.16908e-05 0.000266933 0.143173)
(2.13066e-05 0.000285154 0.145059)
(-2.13175e-05 0.000285153 0.145059)
(-6.17011e-05 0.000266931 0.143173)
(-9.01899e-05 0.000234792 0.139521)
(-0.000122051 0.00018894 0.134327)
(-0.00013178 0.000144165 0.127936)
(0.0025357 0.00293309 0.371023)
(0.00226803 0.00363617 0.388404)
(0.00177651 0.00428367 0.402485)
(0.00114819 0.00476544 0.412365)
(0.000396468 0.00502696 0.417457)
(-0.000396504 0.00502696 0.417457)
(-0.00114823 0.00476543 0.412365)
(-0.00177654 0.00428366 0.402485)
(-0.00226806 0.00363616 0.388404)
(-0.00253572 0.00293308 0.371023)
(0.0069073 0.00801307 0.596408)
(0.00613688 0.00982337 0.622791)
(0.00481033 0.0114673 0.644052)
(0.00309134 0.0126904 0.658929)
(0.00106583 0.0133496 0.666582)
(-0.0010659 0.0133496 0.666582)
(-0.00309141 0.0126904 0.658929)
(-0.00481039 0.0114673 0.644051)
(-0.00613693 0.00982335 0.622791)
(-0.00690734 0.00801305 0.596407)
(0.0126777 0.0147096 0.802577)
(0.0111901 0.0178365 0.835887)
(0.0087459 0.0206498 0.862546)
(0.00559666 0.0227323 0.881136)
(0.00192627 0.0238492 0.890679)
(-0.00192637 0.0238492 0.890679)
(-0.00559675 0.0227323 0.881136)
(-0.00874598 0.0206498 0.862545)
(-0.0111902 0.0178365 0.835887)
(-0.0126778 0.0147095 0.802577)
(0.0189635 0.0219671 0.98879)
(0.0166176 0.0263241 1.027)
(0.0129299 0.030208 1.05733)
(0.0082393 0.0330638 1.0784)
(0.00283032 0.0345879 1.0892)
(-0.00283044 0.0345879 1.0892)
(-0.00823942 0.0330638 1.0784)
(-0.01293 0.0302079 1.05733)
(-0.0166177 0.0263241 1.027)
(-0.0189636 0.0219671 0.988789)
(0.0249876 0.0288635 1.15492)
(0.021723 0.0341402 1.19615)
(0.016811 0.0387935 1.22859)
(0.0106651 0.0421897 1.25103)
(0.00365581 0.0439929 1.26249)
(-0.00365596 0.0439928 1.26249)
(-0.0106652 0.0421897 1.25103)
(-0.0168111 0.0387935 1.22859)
(-0.0217231 0.0341402 1.19615)
(-0.0249877 0.0288635 1.15492)
(0.0301282 0.0346705 1.30128)
(0.0259651 0.0404115 1.34385)
(0.0199714 0.0454087 1.37704)
(0.0126106 0.0490263 1.3999)
(0.0043127 0.0509366 1.41154)
(-0.00431288 0.0509366 1.41154)
(-0.0126108 0.0490263 1.3999)
(-0.0199716 0.0454087 1.37704)
(-0.0259653 0.0404115 1.34385)
(-0.0301283 0.0346705 1.30128)
(0.0339269 0.0388509 1.42842)
(0.0289666 0.0445307 1.47092)
(0.0221314 0.0493951 1.50377)
(0.0139041 0.0528841 1.52628)
(0.00474301 0.0547159 1.5377)
(-0.00474322 0.0547159 1.5377)
(-0.0139043 0.0528841 1.52628)
(-0.0221316 0.0493951 1.50377)
(-0.0289667 0.0445307 1.47092)
(-0.033927 0.0388509 1.42842)
(0.0361361 0.0410953 1.5369)
(0.0305444 0.0461969 1.5784)
(0.0231576 0.0504422 1.61011)
(0.0144637 0.053457 1.63165)
(0.00491926 0.0550285 1.64253)
(-0.00491949 0.0550285 1.64253)
(-0.0144639 0.053457 1.63165)
(-0.0231578 0.0504422 1.61011)
(-0.0305446 0.0461969 1.5784)
(-0.0361362 0.0410953 1.5369)
(0.0367265 0.0417136 1.62713)
(0.030664 0.0453196 1.66777)
(0.0229892 0.0484391 1.69765)
(0.0142525 0.0506226 1.71766)
(0.0048295 0.0517495 1.72769)
(-0.00482974 0.0517495 1.72769)
(-0.0142527 0.0506226 1.71766)
(-0.0229894 0.0484391 1.69765)
(-0.0306642 0.0453196 1.66777)
(-0.0367267 0.0417136 1.62713)
(8.0387e-05 0.000108461 0.124941)
(5.6317e-05 0.000137585 0.131131)
(3.4554e-05 0.000154464 0.136131)
(2.11504e-05 0.000162817 0.13964)
(6.87366e-06 0.00016682 0.14145)
(-6.8824e-06 0.00016682 0.14145)
(-2.11589e-05 0.000162815 0.13964)
(-3.45614e-05 0.000154461 0.136131)
(-5.63237e-05 0.000137581 0.131131)
(-8.03924e-05 0.000108457 0.124941)
(0.00105014 0.00125398 0.362447)
(0.000902171 0.00155532 0.379378)
(0.000690033 0.00180899 0.393036)
(0.000440705 0.0019911 0.402611)
(0.000151278 0.0020885 0.407543)
(-0.000151308 0.0020885 0.407543)
(-0.000440734 0.0019911 0.402611)
(-0.000690058 0.00180898 0.393036)
(-0.000902194 0.00155531 0.379378)
(-0.00105016 0.00125396 0.362447)
(0.00289433 0.00340663 0.583876)
(0.00252794 0.00419028 0.609825)
(0.00196288 0.00487412 0.630683)
(0.00125594 0.00537611 0.645277)
(0.000432158 0.00564539 0.652785)
(-0.000432211 0.00564538 0.652785)
(-0.00125599 0.0053761 0.645277)
(-0.00196293 0.00487411 0.630683)
(-0.00252798 0.00419026 0.609825)
(-0.00289437 0.00340662 0.583876)
(0.00542565 0.00634656 0.788503)
(0.00475205 0.00773733 0.8217)
(0.00370119 0.00896317 0.848248)
(0.00236602 0.00986662 0.866778)
(0.000814063 0.0103507 0.876297)
(-0.000814141 0.0103507 0.876297)
(-0.00236609 0.00986661 0.866778)
(-0.00370126 0.00896315 0.848248)
(-0.00475211 0.00773731 0.821699)
(-0.0054257 0.00634654 0.788502)
(0.00831564 0.0096822 0.975828)
(0.00726682 0.0116825 1.01451)
(0.00565276 0.013446 1.04525)
(0.00360507 0.014743 1.06664)
(0.00123909 0.015436 1.07761)
(-0.00123919 0.015436 1.07761)
(-0.00360517 0.014743 1.06664)
(-0.00565285 0.013446 1.04525)
(-0.0072669 0.0116825 1.01451)
(-0.00831571 0.00968217 0.975827)
(0.0112296 0.0130172 1.14558)
(0.00976467 0.0155187 1.18803)
(0.00756925 0.017712 1.22152)
(0.00481136 0.0193171 1.24476)
(0.00165106 0.0201714 1.25665)
(-0.00165119 0.0201714 1.25665)
(-0.00481149 0.0193171 1.24476)
(-0.00756936 0.0177119 1.22152)
(-0.00976477 0.0155186 1.18803)
(-0.0112296 0.0130172 1.14558)
(0.0138582 0.0159891 1.29765)
(0.0119687 0.0187961 1.34226)
(0.00923195 0.0212335 1.37719)
(0.00584461 0.0230051 1.40133)
(0.0020016 0.0239436 1.41366)
(-0.00200175 0.0239436 1.41366)
(-0.00584476 0.0230051 1.40133)
(-0.00923209 0.0212335 1.37719)
(-0.0119688 0.0187961 1.34226)
(-0.0138583 0.015989 1.29765)
(0.0159405 0.0182901 1.43204)
(0.0136555 0.0211512 1.47736)
(0.0104698 0.0236013 1.51259)
(0.00659722 0.0253666 1.53683)
(0.00225396 0.0262964 1.54916)
(-0.00225414 0.0262964 1.54916)
(-0.00659739 0.0253666 1.53683)
(-0.01047 0.0236013 1.51259)
(-0.0136556 0.0211512 1.47736)
(-0.0159406 0.0182901 1.43204)
(0.017304 0.0197052 1.54864)
(0.0146856 0.0223534 1.59365)
(0.0111765 0.0245611 1.62827)
(0.00700203 0.0261351 1.6519)
(0.00238521 0.0269579 1.66386)
(-0.0023854 0.0269579 1.66386)
(-0.00700221 0.0261351 1.6519)
(-0.0111767 0.0245611 1.62827)
(-0.0146858 0.0223534 1.59365)
(-0.0173042 0.0197052 1.54864)
(0.0178833 0.0203347 1.64716)
(0.0149908 0.0222899 1.69196)
(0.0112827 0.0239665 1.72512)
(0.00701576 0.0251435 1.74743)
(0.00238087 0.0257523 1.75864)
(-0.00238108 0.0257523 1.75864)
(-0.00701595 0.0251435 1.74743)
(-0.0112829 0.0239665 1.72512)
(-0.014991 0.0222899 1.69195)
(-0.0178834 0.0203347 1.64716)
(1.24434e-05 1.53153e-05 0.123427)
(8.4805e-06 2.09172e-05 0.129549)
(4.77082e-06 2.45952e-05 0.134491)
(3.51266e-06 2.6706e-05 0.13796)
(1.17909e-06 2.79318e-05 0.139749)
(-1.18576e-06 2.79313e-05 0.139749)
(-3.51906e-06 2.67045e-05 0.13796)
(-4.77668e-06 2.45929e-05 0.134491)
(-8.48575e-06 2.09142e-05 0.129549)
(-1.24475e-05 1.53119e-05 0.123427)
(0.000365658 0.000427281 0.35817)
(0.000319244 0.000533334 0.374929)
(0.00024729 0.000625848 0.388442)
(0.000159644 0.000694215 0.397917)
(5.50582e-05 0.000731368 0.402798)
(-5.50812e-05 0.000731367 0.402798)
(-0.000159666 0.000694211 0.397917)
(-0.00024731 0.000625841 0.388442)
(-0.000319262 0.000533325 0.374929)
(-0.000365673 0.000427272 0.35817)
(0.00109176 0.00127028 0.577486)
(0.000963007 0.00157116 0.603246)
(0.000753865 0.0018388 0.62395)
(0.000485339 0.00203872 0.638443)
(0.000167479 0.00214694 0.645902)
(-0.00016752 0.00214694 0.645902)
(-0.000485379 0.00203871 0.638443)
(-0.000753901 0.00183879 0.62395)
(-0.00096304 0.00157115 0.603245)
(-0.00109179 0.00127027 0.577485)
(0.00214057 0.002484 0.780974)
(0.00189018 0.0030455 0.81409)
(0.00148235 0.00354731 0.840587)
(0.000952371 0.00392223 0.859097)
(0.000328468 0.00412462 0.868611)
(-0.000328529 0.00412462 0.868611)
(-0.00095243 0.00392222 0.859097)
(-0.0014824 0.0035473 0.840587)
(-0.00189023 0.00304548 0.81409)
(-0.00214061 0.00248399 0.780974)
(0.00338983 0.00392185 0.968314)
(0.00298548 0.00476046 1.00715)
(0.00233774 0.00550876 1.03804)
(0.00149801 0.00606593 1.05958)
(0.000516075 0.00636569 1.07063)
(-0.000516156 0.00636569 1.07063)
(-0.00149809 0.00606592 1.05958)
(-0.00233781 0.00550875 1.03804)
(-0.00298555 0.00476045 1.00715)
(-0.00338988 0.00392183 0.968313)
(0.00470082 0.00541907 1.13925)
(0.00411999 0.0065012 1.18219)
(0.00321493 0.00746116 1.21613)
(0.00205329 0.00817198 1.23972)
(0.000706253 0.00855286 1.25181)
(-0.000706354 0.00855286 1.25181)
(-0.00205338 0.00817198 1.23972)
(-0.00321502 0.00746115 1.21613)
(-0.00412008 0.00650118 1.18219)
(-0.00470089 0.00541906 1.13925)
(0.00593361 0.00681117 1.29359)
(0.00516635 0.00805917 1.33907)
(0.00401184 0.00915574 1.37479)
(0.00255199 0.00996189 1.39953)
(0.000876039 0.0103917 1.41218)
(-0.00087616 0.0103917 1.41218)
(-0.0025521 0.00996189 1.39953)
(-0.00401195 0.00915573 1.37479)
(-0.00516645 0.00805916 1.33907)
(-0.0059337 0.00681115 1.29359)
(0.00696038 0.00794729 1.4311)
(0.00601234 0.00925128 1.4777)
(0.00464069 0.0103816 1.51405)
(0.00293797 0.0112047 1.53912)
(0.00100609 0.0116409 1.5519)
(-0.00100623 0.0116409 1.5519)
(-0.0029381 0.0112047 1.53912)
(-0.00464082 0.0103816 1.51405)
(-0.00601246 0.00925127 1.4777)
(-0.00696048 0.00794728 1.4311)
(0.00768849 0.00871329 1.5514)
(0.00657879 0.00994974 1.59808)
(0.00503896 0.0109925 1.63411)
(0.00317094 0.0117425 1.65878)
(0.00108251 0.0121366 1.67128)
(-0.00108266 0.0121366 1.67128)
(-0.00317108 0.0117425 1.65878)
(-0.0050391 0.0109925 1.63411)
(-0.00657892 0.00994974 1.59808)
(-0.0076886 0.00871329 1.5514)
(0.00807074 0.00914218 1.65386)
(0.00681379 0.0100868 1.70071)
(0.00515825 0.0108954 1.73552)
(0.00322022 0.0114664 1.75901)
(0.00109491 0.0117628 1.77082)
(-0.00109507 0.0117628 1.77082)
(-0.00322038 0.0114664 1.75901)
(-0.0051584 0.0108954 1.73552)
(-0.00681392 0.0100868 1.70071)
(-0.00807086 0.00914219 1.65386)
(7.85332e-06 1.24817e-05 0.123025)
(3.26963e-06 1.62796e-05 0.12912)
(6.58665e-07 1.74105e-05 0.134034)
(1.67329e-07 1.74413e-05 0.137484)
(-2.5204e-08 1.73544e-05 0.139263)
(2.03316e-08 1.7354e-05 0.139263)
(-1.72001e-07 1.74402e-05 0.137484)
(-6.6294e-07 1.74088e-05 0.134034)
(-3.27354e-06 1.62773e-05 0.12912)
(-7.85632e-06 1.24792e-05 0.123025)
(0.000140796 0.000171058 0.356858)
(0.000116746 0.000213869 0.373539)
(8.7518e-05 0.000247591 0.386976)
(5.55338e-05 0.000271341 0.396397)
(1.89908e-05 0.000283974 0.40125)
(-1.90078e-05 0.000283973 0.40125)
(-5.55501e-05 0.000271338 0.396397)
(-8.75329e-05 0.000247586 0.386976)
(-0.000116759 0.000213863 0.373538)
(-0.000140807 0.000171051 0.356858)
(0.000423322 0.00050087 0.575379)
(0.000365612 0.0006214 0.60104)
(0.000282608 0.000724115 0.621651)
(0.00018076 0.000799563 0.636079)
(6.21841e-05 0.000840109 0.643504)
(-6.2215e-05 0.000840107 0.643504)
(-0.000180789 0.000799558 0.636079)
(-0.000282635 0.000724108 0.621651)
(-0.000365637 0.000621391 0.601039)
(-0.000423342 0.000500859 0.575379)
(0.000842356 0.000986395 0.778378)
(0.000736271 0.00121453 0.811426)
(0.000574144 0.00141394 0.837859)
(0.000367913 0.00156193 0.856328)
(0.000126744 0.00164162 0.865821)
(-0.00012679 0.00164161 0.865821)
(-0.000367957 0.00156192 0.856328)
(-0.000574185 0.00141393 0.837859)
(-0.000736307 0.00121451 0.811425)
(-0.000842387 0.000986382 0.778378)
(0.00135713 0.00157888 0.965655)
(0.00118944 0.00192634 1.00451)
(0.00092933 0.00223259 1.03542)
(0.000595143 0.00246013 1.05698)
(0.00020499 0.00258252 1.06804)
(-0.000205052 0.00258252 1.06804)
(-0.000595202 0.00246013 1.05698)
(-0.000929385 0.00223258 1.03542)
(-0.00118949 0.00192633 1.00451)
(-0.00135717 0.00157886 0.965655)
(0.00191487 0.00221579 1.13702)
(0.00167525 0.00267359 1.18011)
(0.00130697 0.00307686 1.2142)
(0.000835179 0.00337558 1.23791)
(0.000287371 0.00353579 1.25006)
(-0.000287448 0.00353579 1.25006)
(-0.000835253 0.00337558 1.23791)
(-0.00130704 0.00307685 1.2142)
(-0.00167531 0.00267357 1.18011)
(-0.00191492 0.00221578 1.13702)
(0.00245698 0.00282822 1.29225)
(0.00213947 0.00336714 1.33807)
(0.00166306 0.00383888 1.37409)
(0.00105921 0.00418626 1.39906)
(0.00036385 0.00437176 1.41184)
(-0.000363941 0.00437176 1.41184)
(-0.0010593 0.00418626 1.39906)
(-0.00166314 0.00383888 1.37409)
(-0.00213955 0.00336713 1.33807)
(-0.00245705 0.00282821 1.29225)
(0.00292568 0.00334777 1.43108)
(0.00253051 0.00392221 1.47822)
(0.00195663 0.00441938 1.51503)
(0.00124076 0.00478225 1.54045)
(0.000425258 0.00497486 1.55341)
(-0.000425362 0.00497486 1.55341)
(-0.00124087 0.00478225 1.54045)
(-0.00195672 0.00441938 1.51503)
(-0.0025306 0.00392221 1.47822)
(-0.00292575 0.00334776 1.43108)
(0.00327541 0.00371802 1.55301)
(0.00280845 0.00427371 1.60041)
(0.00215575 0.00474243 1.63707)
(0.00135906 0.0050803 1.66219)
(0.000464393 0.0052581 1.67494)
(-0.000464509 0.0052581 1.67494)
(-0.00135918 0.0050803 1.66219)
(-0.00215585 0.00474243 1.63707)
(-0.00280855 0.00427371 1.60041)
(-0.0032755 0.00371802 1.553)
(0.00347912 0.0039465 1.65725)
(0.00294381 0.00438243 1.70503)
(0.00223386 0.00475393 1.74059)
(0.00139717 0.00501676 1.76462)
(0.000475493 0.0051534 1.77672)
(-0.000475617 0.0051534 1.77672)
(-0.0013973 0.00501676 1.76462)
(-0.00223397 0.00475394 1.74059)
(-0.00294392 0.00438243 1.70503)
(-0.00347921 0.00394651 1.65725)
(-4.05655e-07 2.37657e-07 0.122845)
(-1.45515e-06 7.41985e-07 0.128931)
(-1.65546e-06 5.73864e-07 0.133837)
(-1.07605e-06 2.62355e-07 0.137282)
(-3.89432e-07 8.56585e-08 0.139057)
(3.86042e-07 8.5409e-08 0.139057)
(1.07281e-06 2.6159e-07 0.137282)
(1.65248e-06 5.72663e-07 0.133837)
(1.45242e-06 7.40416e-07 0.128931)
(4.03549e-07 2.35885e-07 0.122845)
(4.01153e-05 4.82556e-05 0.356282)
(3.30029e-05 6.12906e-05 0.372933)
(2.47279e-05 7.16005e-05 0.386345)
(1.57983e-05 7.90136e-05 0.395748)
(5.41293e-06 8.30109e-05 0.400591)
(-5.42495e-06 8.30102e-05 0.400591)
(-1.58099e-05 7.90114e-05 0.395748)
(-2.47385e-05 7.15971e-05 0.386345)
(-3.30125e-05 6.12862e-05 0.372933)
(-4.01229e-05 4.82504e-05 0.356282)
(0.000137206 0.000161059 0.574441)
(0.000118849 0.000201928 0.600061)
(9.23087e-05 0.000237085 0.620637)
(5.93325e-05 0.000263308 0.63504)
(2.04544e-05 0.000277518 0.642453)
(-2.04764e-05 0.000277517 0.642453)
(-5.93537e-05 0.000263305 0.63504)
(-9.23282e-05 0.00023708 0.620637)
(-0.000118867 0.000201922 0.600061)
(-0.000137221 0.000161052 0.574441)
(0.00029021 0.000337614 0.777184)
(0.000254943 0.000419389 0.810197)
(0.000199898 0.000491524 0.836603)
(0.000128667 0.000545742 0.855054)
(4.44169e-05 0.000575137 0.864539)
(-4.44497e-05 0.000575135 0.864539)
(-0.000128699 0.000545738 0.855054)
(-0.000199927 0.000491518 0.836603)
(-0.000254969 0.000419381 0.810197)
(-0.000290232 0.000337605 0.777183)
(0.00048642 0.000562609 0.964366)
(0.000428864 0.000691994 1.00322)
(0.000337024 0.000807051 1.03413)
(0.000216778 0.000893527 1.05569)
(7.48224e-05 0.000940331 1.06676)
(-7.48666e-05 0.00094033 1.06676)
(-0.000216821 0.000893523 1.05569)
(-0.000337064 0.000807044 1.03413)
(-0.0004289 0.000691984 1.00322)
(-0.00048645 0.000562599 0.964365)
(0.000706728 0.000813361 1.13583)
(0.000622338 0.000988922 1.17898)
(0.000488443 0.00114498 1.21311)
(0.000313499 0.00126182 1.23686)
(0.000108098 0.00132486 1.24904)
(-0.000108153 0.00132486 1.24904)
(-0.000313553 0.00126182 1.23686)
(-0.000488493 0.00114497 1.21311)
(-0.000622384 0.000988914 1.17897)
(-0.000706767 0.000813351 1.13583)
(0.00092811 0.00106277 1.29136)
(0.000813794 0.00127454 1.33731)
(0.000636441 0.00146163 1.37344)
(0.000407134 0.0016008 1.3985)
(0.00014015 0.00167553 1.41133)
(-0.000140216 0.00167553 1.41133)
(-0.000407199 0.00160079 1.3985)
(-0.000636502 0.00146163 1.37344)
(-0.000813849 0.00127454 1.33731)
(-0.000928158 0.00106276 1.29136)
(0.00112655 0.00128244 1.43068)
(0.000981402 0.00151302 1.47803)
(0.00076343 0.00171443 1.51503)
(0.000486191 0.0018628 1.54059)
(0.000166977 0.00194196 1.55363)
(-0.000167053 0.00194196 1.55363)
(-0.000486265 0.0018628 1.54059)
(-0.0007635 0.00171443 1.51503)
(-0.000981466 0.00151301 1.47803)
(-0.0011266 0.00128243 1.43068)
(0.00128208 0.00144791 1.55324)
(0.0011071 0.00167548 1.60095)
(0.000854675 0.00186901 1.63787)
(0.00054097 0.00200954 1.66318)
(0.000185199 0.00208381 1.67603)
(-0.000185284 0.00208381 1.67603)
(-0.000541053 0.00200954 1.66318)
(-0.000854754 0.00186901 1.63787)
(-0.00110717 0.00167548 1.60095)
(-0.00128215 0.00144791 1.55324)
(0.00138138 0.0015609 1.65822)
(0.00117595 0.00174424 1.70639)
(0.00089696 0.00190002 1.74227)
(0.000562977 0.00201074 1.76653)
(0.00019191 0.00206848 1.77875)
(-0.000192001 0.00206848 1.77875)
(-0.000563067 0.00201075 1.76653)
(-0.000897045 0.00190002 1.74227)
(-0.00117603 0.00174424 1.70639)
(-0.00138145 0.0015609 1.65822)
(3.17442e-08 8.03223e-07 0.122816)
(-8.33664e-07 1.19435e-06 0.128898)
(-1.04438e-06 1.0268e-06 0.133801)
(-7.57956e-07 7.37179e-07 0.137243)
(-2.81772e-07 5.52324e-07 0.139018)
(2.79524e-07 5.52158e-07 0.139018)
(7.558e-07 7.36674e-07 0.137243)
(1.04238e-06 1.02598e-06 0.133801)
(8.31865e-07 1.19329e-06 0.128898)
(-3.31801e-08 8.02038e-07 0.122816)
(1.15467e-05 1.51386e-05 0.356145)
(8.20527e-06 1.94805e-05 0.372785)
(5.49669e-06 2.22572e-05 0.386185)
(3.30305e-06 2.40227e-05 0.395579)
(1.09291e-06 2.49196e-05 0.400418)
(-1.10105e-06 2.49191e-05 0.400418)
(-3.31087e-06 2.40212e-05 0.395579)
(-5.50392e-06 2.22549e-05 0.386185)
(-8.2117e-06 1.94774e-05 0.372785)
(-1.1552e-05 1.51352e-05 0.356145)
(4.25099e-05 5.14443e-05 0.574184)