/*--------------------------------*- C++ -*----------------------------------*\
| =========                 |                                                 |
| \\      /  F ield         | OpenFOAM: The Open Source CFD Toolbox           |
|  \\    /   O peration     | Version:  2106                                  |
|   \\  /    A nd           | Website:  www.openfoam.com                      |
|    \\/     M anipulation  |                                                 |
\*---------------------------------------------------------------------------*/
FoamFile
{
    version     2.0;
    format      ascii;
    arch        "LSB;label=32;scalar=64";
    class       volVectorField;
    location    "1";
    object      U;
}
// * * * * * * * * * * * * * * * * * * * * * * * * * * * * * * * * * * * * * //

dimensions      [0 1 -1 0 0 0 0];

internalField   nonuniform List<vector> 
10000
(
(0.0625636 0.0737211 0.345096)
(0.0533593 0.0838414 0.359575)
(0.0398496 0.0929929 0.370939)
(0.0247212 0.0993754 0.378788)
(0.00837792 0.102675 0.382776)
(-0.00837792 0.102675 0.382776)
(-0.0247212 0.0993754 0.378788)
(-0.0398496 0.0929929 0.370939)
(-0.0533593 0.0838414 0.359575)
(-0.0625636 0.0737211 0.345096)
(0.172066 0.204138 0.727831)
(0.145247 0.231382 0.747479)
(0.108435 0.255344 0.762118)
(0.0670895 0.271931 0.772015)
(0.0227096 0.280486 0.776964)
(-0.0227096 0.280486 0.776964)
(-0.0670895 0.271931 0.772015)
(-0.108435 0.255344 0.762118)
(-0.145247 0.231382 0.747479)
(-0.172066 0.204138 0.727831)
(0.222648 0.264373 0.923739)
(0.18584 0.296085 0.939565)
(0.137856 0.323777 0.950628)
(0.0848701 0.342722 0.957931)
(0.0286578 0.352429 0.961512)
(-0.0286578 0.352429 0.961512)
(-0.0848701 0.342722 0.957931)
(-0.137856 0.323777 0.950628)
(-0.18584 0.296085 0.939565)
(-0.222648 0.264373 0.923739)
(0.237677 0.281764 1.02285)
(0.196441 0.311648 1.03335)
(0.14482 0.337796 1.04002)
(0.088745 0.355484 1.04428)
(0.0298984 0.364489 1.04632)
(-0.0298984 0.364489 1.04632)
(-0.088745 0.355484 1.04428)
(-0.14482 0.337796 1.04002)
(-0.196441 0.311648 1.03335)
(-0.237677 0.281764 1.02285)
(0.235748 0.278981 1.0712)
(0.193248 0.304987 1.07716)
(0.141717 0.327879 1.08028)
(0.0864955 0.343231 1.08216)
(0.0290844 0.350999 1.08301)
(-0.0290844 0.350999 1.08301)
(-0.0864955 0.343231 1.08216)
(-0.141717 0.327879 1.08028)
(-0.193248 0.304987 1.07716)
(-0.235748 0.278981 1.0712)
(0.224751 0.265483 1.09228)
(0.18284 0.286898 1.09486)
(0.13345 0.3059 1.09551)
(0.0811495 0.31857 1.09576)
(0.0272388 0.324944 1.09581)
(-0.0272389 0.324944 1.09581)
(-0.0811495 0.31857 1.09576)
(-0.13345 0.3059 1.09551)
(-0.18284 0.286898 1.09486)
(-0.224751 0.265483 1.09228)
(0.208425 0.245569 1.09889)
(0.168275 0.262153 1.09917)
(0.122269 0.277015 1.09825)
(0.0740904 0.286905 1.09749)
(0.0248277 0.29186 1.09706)
(-0.0248277 0.29186 1.09706)
(-0.0740904 0.286905 1.09749)
(-0.122269 0.277015 1.09825)
(-0.168275 0.262153 1.09917)
(-0.208425 0.245569 1.09889)
(0.189098 0.221963 1.0982)
(0.151496 0.233759 1.09703)
(0.109614 0.244468 1.09523)
(0.0662056 0.25163 1.09392)
(0.0221505 0.255218 1.09323)
(-0.0221505 0.255218 1.09323)
(-0.0662056 0.25163 1.09392)
(-0.109614 0.244468 1.09523)
(-0.151496 0.233759 1.09703)
(-0.189098 0.221963 1.0982)
(0.168304 0.196453 1.09422)
(0.133875 0.203647 1.09216)
(0.0964719 0.210329 1.08995)
(0.058086 0.214927 1.0884)
(0.0194043 0.217251 1.08761)
(-0.0194044 0.217251 1.08761)
(-0.058086 0.214927 1.0884)
(-0.0964719 0.210329 1.08995)
(-0.133875 0.203647 1.09216)
(-0.168304 0.196453 1.09422)
(0.147204 0.170689 1.08917)
(0.116611 0.171791 1.08665)
(0.0834498 0.175074 1.08429)
(0.0500601 0.177465 1.08271)
(0.0166935 0.178695 1.08191)
(-0.0166936 0.178695 1.08191)
(-0.0500602 0.177465 1.08271)
(-0.0834498 0.175074 1.08429)
(-0.116611 0.171791 1.08665)
(-0.147204 0.170689 1.08917)
(0.0111958 0.0143012 0.266506)
(0.00940606 0.0175921 0.278767)
(0.0071024 0.0202356 0.288808)
(0.00449606 0.0220479 0.295797)
(0.00153833 0.0229922 0.299374)
(-0.00153833 0.0229922 0.299374)
(-0.00449606 0.0220479 0.295797)
(-0.0071024 0.0202356 0.288808)
(-0.00940606 0.0175921 0.278767)
(-0.0111958 0.0143012 0.266506)
(0.0544223 0.0658482 0.629478)
(0.0467324 0.0792242 0.651422)
(0.0357657 0.0906859 0.66902)
(0.0226113 0.0988073 0.681123)
(0.00773782 0.10307 0.687266)
(-0.00773782 0.10307 0.687266)
(-0.0226114 0.0988073 0.681123)
(-0.0357657 0.0906859 0.66902)
(-0.0467324 0.0792242 0.651422)
(-0.0544224 0.0658482 0.629478)
(0.0977997 0.116815 0.87643)
(0.0834415 0.138156 0.900251)
(0.0635245 0.156472 0.918936)
(0.0399202 0.169399 0.931631)
(0.0136206 0.17615 0.938024)
(-0.0136206 0.17615 0.938024)
(-0.0399203 0.169399 0.931631)
(-0.0635245 0.156472 0.918936)
(-0.0834415 0.138156 0.900251)
(-0.0977998 0.116815 0.87643)
(0.133896 0.158752 1.04419)
(0.113269 0.184891 1.06619)
(0.0856789 0.207217 1.08302)
(0.0535377 0.222862 1.09432)
(0.0182151 0.230987 1.09997)
(-0.0182151 0.230987 1.09997)
(-0.0535378 0.222862 1.09432)
(-0.085679 0.207217 1.08302)
(-0.113269 0.184891 1.06619)
(-0.133896 0.158752 1.04419)
(0.159748 0.188326 1.15724)
(0.133984 0.216205 1.17585)
(0.100714 0.239858 1.18972)
(0.0626089 0.256314 1.19891)
(0.0212467 0.264813 1.20346)
(-0.0212467 0.264813 1.20346)
(-0.062609 0.256314 1.19891)
(-0.100714 0.239858 1.18972)
(-0.133984 0.216205 1.17585)
(-0.159748 0.188326 1.15724)
(0.175397 0.205708 1.23229)
(0.145868 0.23284 1.24712)
(0.108987 0.25566 1.25784)
(0.0674289 0.271429 1.26484)
(0.022828 0.279531 1.26827)
(-0.0228281 0.279531 1.26827)
(-0.067429 0.271429 1.26484)
(-0.108987 0.25566 1.25784)
(-0.145868 0.23284 1.24712)
(-0.175397 0.205708 1.23229)
(0.181903 0.212238 1.28118)
(0.149988 0.236723 1.29242)
(0.11141 0.257075 1.30027)
(0.0686175 0.271054 1.30532)
(0.0231784 0.278203 1.30777)
(-0.0231784 0.278203 1.30777)
(-0.0686175 0.271054 1.30532)
(-0.11141 0.257075 1.30027)
(-0.149988 0.236723 1.29242)
(-0.181903 0.212238 1.28118)
(0.180604 0.209546 1.31224)
(0.147629 0.230002 1.32039)
(0.109037 0.24673 1.32587)
(0.0668701 0.258167 1.32932)
(0.0225402 0.263997 1.33097)
(-0.0225403 0.263997 1.33097)
(-0.0668701 0.258167 1.32932)
(-0.109037 0.24673 1.32587)
(-0.147629 0.230002 1.32039)
(-0.180604 0.209546 1.31224)
(0.172956 0.199304 1.33131)
(0.140208 0.214798 1.33698)
(0.10297 0.22711 1.34062)
(0.0628798 0.235545 1.34285)
(0.0211502 0.239841 1.3439)
(-0.0211503 0.239841 1.3439)
(-0.0628799 0.235545 1.34285)
(-0.10297 0.22711 1.34062)
(-0.140208 0.214798 1.33698)
(-0.172956 0.199304 1.33131)
(0.160527 0.18432 1.34251)
(0.129269 0.192258 1.34634)
(0.0941589 0.199804 1.34862)
(0.0572099 0.205009 1.34994)
(0.0191959 0.207657 1.35054)
(-0.019196 0.207657 1.35054)
(-0.05721 0.205009 1.34994)
(-0.0941589 0.199804 1.34862)
(-0.129269 0.192258 1.34634)
(-0.160527 0.18432 1.34251)
(0.00112222 0.00125326 0.157607)
(0.00113336 0.00160041 0.165905)
(0.000883495 0.00200864 0.172834)
(0.000591408 0.00231102 0.177739)
(0.000206086 0.00247859 0.180278)
(-0.000206089 0.00247859 0.180278)
(-0.000591411 0.00231102 0.177739)
(-0.000883498 0.00200864 0.172834)
(-0.00113337 0.00160041 0.165905)
(-0.00112222 0.00125326 0.157607)
(0.0180232 0.0209137 0.441563)
(0.0162083 0.0255147 0.461763)
(0.0126854 0.0298443 0.478352)
(0.00814735 0.0330423 0.489995)
(0.00280743 0.0347602 0.495989)
(-0.00280744 0.0347602 0.495989)
(-0.00814736 0.0330423 0.489995)
(-0.0126854 0.0298443 0.478352)
(-0.0162084 0.0255147 0.461763)
(-0.0180232 0.0209137 0.441563)
(0.0410856 0.0478229 0.685109)
(0.0362873 0.0574558 0.712684)
(0.0281915 0.0662423 0.734968)
(0.0179585 0.0726672 0.750479)
(0.00616599 0.0760888 0.758422)
(-0.00616601 0.0760888 0.758422)
(-0.0179585 0.0726672 0.750479)
(-0.0281915 0.0662423 0.734968)
(-0.0362873 0.0574558 0.712684)
(-0.0410856 0.0478229 0.685109)
(0.065971 0.0768501 0.887713)
(0.0575034 0.0910361 0.918892)
(0.0443448 0.103728 0.94367)
(0.0280677 0.112912 0.960772)
(0.00960781 0.117767 0.969486)
(-0.00960785 0.117767 0.969486)
(-0.0280678 0.112912 0.960772)
(-0.0443448 0.103728 0.94367)
(-0.0575034 0.0910361 0.918892)
(-0.065971 0.0768501 0.887713)
(0.088206 0.102635 1.05281)
(0.0760127 0.119906 1.08481)
(0.0582034 0.135132 1.10981)
(0.0366326 0.146041 1.12691)
(0.0125056 0.151772 1.13559)
(-0.0125057 0.151772 1.13559)
(-0.0366327 0.146041 1.12691)
(-0.0582034 0.135132 1.10981)
(-0.0760127 0.119906 1.08481)
(-0.0882061 0.102635 1.05281)
(0.105547 0.122495 1.18529)
(0.0900036 0.141101 1.21623)
(0.0684453 0.157278 1.23999)
(0.0428548 0.168768 1.25612)
(0.0145927 0.174767 1.26425)
(-0.0145927 0.174767 1.26425)
(-0.0428549 0.168768 1.25612)
(-0.0684454 0.157278 1.23999)
(-0.0900036 0.141101 1.21623)
(-0.105547 0.122495 1.18529)
(0.117142 0.135463 1.29029)
(0.0988779 0.153715 1.31902)
(0.0746901 0.169349 1.34072)
(0.0465321 0.180364 1.35534)
(0.0158062 0.186085 1.36268)
(-0.0158063 0.186085 1.36268)
(-0.0465322 0.180364 1.35534)
(-0.0746902 0.169349 1.34072)
(-0.098878 0.153715 1.31902)
(-0.117142 0.135463 1.29029)
(0.122865 0.141424 1.37259)
(0.102667 0.157846 1.39851)
(0.0770383 0.171663 1.41781)
(0.047762 0.181326 1.43071)
(0.0161849 0.18632 1.43715)
(-0.016185 0.18632 1.43715)
(-0.0477621 0.181326 1.43071)
(-0.0770383 0.171663 1.41781)
(-0.102667 0.157846 1.39851)
(-0.122866 0.141424 1.37259)
(0.123115 0.140817 1.43628)
(0.101862 0.154226 1.45929)
(0.0759043 0.165181 1.47616)
(0.0468169 0.17281 1.48732)
(0.0158241 0.176736 1.49287)
(-0.0158242 0.176736 1.49287)
(-0.046817 0.17281 1.48732)
(-0.0759044 0.165181 1.47616)
(-0.101862 0.154226 1.45929)
(-0.123115 0.140817 1.43628)
(0.118708 0.135454 1.48471)
(0.0972575 0.143516 1.50531)
(0.0717592 0.150807 1.51984)
(0.0439857 0.155858 1.52932)
(0.0148219 0.158443 1.53399)
(-0.014822 0.158443 1.53399)
(-0.0439858 0.155858 1.52932)
(-0.0717593 0.150807 1.51984)
(-0.0972576 0.143516 1.50531)
(-0.118709 0.135454 1.48471)
(0.000713597 0.000937147 0.137856)
(0.000557817 0.00117504 0.144661)
(0.000382049 0.00134377 0.150202)
(0.000236954 0.00144365 0.154092)
(7.93537e-05 0.00149364 0.156099)
(-7.93572e-05 0.00149364 0.156099)
(-0.000236957 0.00144364 0.154092)
(-0.000382052 0.00134377 0.150202)
(-0.00055782 0.00117504 0.144661)
(-0.000713599 0.000937145 0.137856)
(0.00704572 0.0084244 0.395308)
(0.00611851 0.0103838 0.413369)
(0.00470523 0.0120794 0.427991)
(0.00300202 0.0132968 0.438225)
(0.00103102 0.0139445 0.443492)
(-0.00103103 0.0139445 0.443492)
(-0.00300203 0.0132968 0.438225)
(-0.00470524 0.0120794 0.427991)
(-0.00611853 0.0103838 0.413369)
(-0.00704573 0.0084244 0.395308)
(0.0172813 0.0204043 0.628396)
(0.0150761 0.0248438 0.655061)
(0.0116682 0.0287402 0.676482)
(0.00743385 0.0315692 0.691412)
(0.00255298 0.0330742 0.699075)
(-0.002553 0.0330742 0.699075)
(-0.00743387 0.0315692 0.691412)
(-0.0116682 0.0287402 0.676482)
(-0.0150761 0.0248438 0.655061)
(-0.0172814 0.0204043 0.628396)
(0.0296528 0.0348135 0.835208)
(0.0257847 0.0418816 0.867796)
(0.0199304 0.0480844 0.893729)
(0.0126574 0.0525835 0.911716)
(0.00434078 0.0549696 0.920919)
(-0.00434083 0.0549696 0.920919)
(-0.0126574 0.0525835 0.911716)
(-0.0199304 0.0480844 0.893729)
(-0.0257848 0.0418816 0.867796)
(-0.0296529 0.0348135 0.835208)
(0.0421082 0.0492159 1.0157)
(0.0363898 0.0584615 1.05179)
(0.0280148 0.0665293 1.08021)
(0.0177214 0.072352 1.09982)
(0.0060659 0.075427 1.10982)
(-0.00606595 0.075427 1.10982)
(-0.0177214 0.072352 1.09982)
(-0.0280148 0.0665293 1.08021)
(-0.0363898 0.0584615 1.05179)
(-0.0421082 0.0492159 1.0157)
(0.0531549 0.0618524 1.17104)
(0.0455882 0.0724767 1.20861)
(0.0349114 0.0816611 1.23787)
(0.0219875 0.088246 1.25794)
(0.00751004 0.0917068 1.26815)
(-0.00751012 0.0917068 1.26815)
(-0.0219876 0.088246 1.25794)
(-0.0349115 0.0816611 1.23787)
(-0.0455882 0.0724767 1.20861)
(-0.053155 0.0618524 1.17104)
(0.0618061 0.0715812 1.30302)
(0.0525562 0.0826296 1.34046)
(0.0400069 0.0920596 1.3693)
(0.0250801 0.0987704 1.38898)
(0.00854669 0.102279 1.39895)
(-0.00854677 0.102279 1.39895)
(-0.0250801 0.0987704 1.38898)
(-0.040007 0.0920596 1.3693)
(-0.0525563 0.0826296 1.34046)
(-0.0618062 0.0715812 1.30302)
(0.0674688 0.0777188 1.41367)
(0.0568453 0.0882159 1.44982)
(0.042994 0.0970288 1.47736)
(0.0268222 0.103249 1.49605)
(0.0091182 0.106485 1.50548)
(-0.0091183 0.106485 1.50548)
(-0.0268223 0.103249 1.49605)
(-0.0429941 0.0970288 1.47736)
(-0.0568454 0.0882159 1.44982)
(-0.0674689 0.0777188 1.41367)
(0.0699464 0.0800005 1.50498)
(0.058371 0.0890655 1.53916)
(0.0438341 0.0964626 1.56488)
(0.0271987 0.101647 1.58219)
(0.00922101 0.104328 1.59087)
(-0.00922113 0.104328 1.59087)
(-0.0271988 0.101647 1.58219)
(-0.0438342 0.0964626 1.56488)
(-0.0583711 0.0890655 1.53916)
(-0.0699465 0.0800005 1.50498)
(0.0694189 0.0792152 1.57862)
(0.0573227 0.0852409 1.61109)
(0.0426087 0.0904779 1.63463)
(0.0262625 0.0941131 1.65024)
(0.00887407 0.0959791 1.65802)
(-0.0088742 0.0959791 1.65802)
(-0.0262626 0.0941131 1.65024)
(-0.0426088 0.0904779 1.63463)
(-0.0573228 0.0852409 1.61109)
(-0.069419 0.0792152 1.57862)
(0.000130611 0.000142856 0.126921)
(0.000120993 0.000187234 0.13326)
(8.94065e-05 0.000232699 0.138413)
(6.11663e-05 0.000264567 0.142037)
(2.11283e-05 0.000282636 0.143907)
(-2.11317e-05 0.000282636 0.143907)
(-6.11698e-05 0.000264566 0.142037)
(-8.94096e-05 0.000232698 0.138413)
(-0.000120997 0.000187232 0.13326)
(-0.000130614 0.000142854 0.126921)
(0.00251479 0.00290882 0.368085)
(0.00224939 0.0036061 0.385329)
(0.00176192 0.00424828 0.399298)
(0.00113878 0.0047261 0.409101)
(0.000393225 0.00498548 0.414152)
(-0.000393239 0.00498548 0.414152)
(-0.00113879 0.0047261 0.409101)
(-0.00176193 0.00424828 0.399298)
(-0.00224941 0.00360609 0.385329)
(-0.0025148 0.00290882 0.368085)
(0.00685062 0.00794721 0.59169)
(0.00608662 0.00974265 0.617866)
(0.00477096 0.0113731 0.638959)
(0.00306606 0.0125862 0.653719)
(0.00105713 0.0132401 0.661312)
(-0.00105716 0.0132401 0.661312)
(-0.00306609 0.0125862 0.653719)
(-0.00477098 0.0113731 0.638959)
(-0.00608664 0.00974264 0.617866)
(-0.00685063 0.0079472 0.59169)
(0.0125739 0.0145891 0.796236)
(0.0110987 0.0176904 0.829285)
(0.00867447 0.0204808 0.855734)
(0.00555098 0.0225463 0.874178)
(0.00191057 0.023654 0.883647)
(-0.00191061 0.023654 0.883647)
(-0.00555102 0.0225463 0.874178)
(-0.00867451 0.0204808 0.855734)
(-0.0110987 0.0176904 0.829285)
(-0.012574 0.0145891 0.796236)
(0.0188086 0.0217877 0.980989)
(0.0164821 0.0261091 1.0189)
(0.0128245 0.0299613 1.049)
(0.00817219 0.0327939 1.0699)
(0.00280729 0.0343056 1.08061)
(-0.00280735 0.0343056 1.08061)
(-0.00817224 0.0327939 1.0699)
(-0.0128246 0.0299613 1.049)
(-0.0164822 0.0261091 1.0189)
(-0.0188087 0.0217877 0.980989)
(0.0247839 0.0286283 1.14583)
(0.0215462 0.0338621 1.18673)
(0.0166743 0.0384776 1.21892)
(0.0105784 0.0418462 1.24119)
(0.00362613 0.0436347 1.25256)
(-0.0036262 0.0436347 1.25256)
(-0.0105785 0.0418462 1.24119)
(-0.0166743 0.0384776 1.21892)
(-0.0215462 0.033862 1.18673)
(-0.024784 0.0286283 1.14583)
(0.0298832 0.0343886 1.29105)
(0.0257543 0.0400831 1.33329)
(0.0198094 0.0450398 1.36623)
(0.0125084 0.0486281 1.38892)
(0.00427777 0.050523 1.40047)
(-0.00427786 0.050523 1.40047)
(-0.0125085 0.0486281 1.38892)
(-0.0198095 0.0450398 1.36623)
(-0.0257543 0.0400831 1.33329)
(-0.0298833 0.0343886 1.29105)
(0.0336516 0.0385358 1.41722)
(0.0287319 0.0441697 1.4594)
(0.0219523 0.0489948 1.492)
(0.0137917 0.0524557 1.51434)
(0.0047047 0.0542728 1.52567)
(-0.0047048 0.0542728 1.52567)
(-0.0137918 0.0524557 1.51434)
(-0.0219524 0.0489948 1.492)
(-0.028732 0.0441697 1.4594)
(-0.0336517 0.0385358 1.41722)
(0.0358436 0.0407627 1.52488)
(0.0302975 0.0458232 1.56607)
(0.0229706 0.0500344 1.59754)
(0.014347 0.0530251 1.61892)
(0.00487962 0.054584 1.62972)
(-0.00487973 0.054584 1.62972)
(-0.0143471 0.0530251 1.61892)
(-0.0229707 0.0500344 1.59754)
(-0.0302976 0.0458232 1.56607)
(-0.0358437 0.0407627 1.52488)
(0.0364299 0.0413768 1.61443)
(0.0304167 0.0449539 1.65477)
(0.022804 0.0480484 1.68443)
(0.0141377 0.0502145 1.7043)
(0.00479067 0.0513325 1.71425)
(-0.00479079 0.0513325 1.71425)
(-0.0141379 0.0502146 1.7043)
(-0.0228041 0.0480484 1.68443)
(-0.0304168 0.0449539 1.65477)
(-0.03643 0.0413768 1.61443)
(7.97486e-05 0.000107601 0.12395)
(5.58687e-05 0.000136493 0.130091)
(3.42754e-05 0.000153237 0.135052)
(2.09787e-05 0.000161522 0.138534)
(6.81936e-06 0.000165491 0.140329)
(-6.82235e-06 0.000165491 0.140329)
(-2.09817e-05 0.000161521 0.138534)
(-3.42781e-05 0.000153236 0.135052)
(-5.58714e-05 0.000136492 0.130091)
(-7.97508e-05 0.000107599 0.12395)
(0.00104153 0.00124371 0.359581)
(0.000894768 0.00154258 0.376379)
(0.000684359 0.00179416 0.389929)
(0.00043708 0.00197478 0.399428)
(0.000150039 0.00207137 0.404321)
(-0.000150051 0.00207137 0.404321)
(-0.000437092 0.00197477 0.399428)
(-0.00068437 0.00179416 0.389929)
(-0.000894778 0.00154258 0.376379)
(-0.00104154 0.0012437 0.359581)
(0.00287054 0.00337865 0.579265)
(0.00250716 0.00415586 0.605009)
(0.00194674 0.00483408 0.625703)
(0.00124561 0.00533193 0.640182)
(0.000428611 0.00559898 0.647631)
(-0.000428634 0.00559898 0.647631)
(-0.00124563 0.00533193 0.640182)
(-0.00194676 0.00483407 0.625703)
(-0.00250718 0.00415586 0.605009)
(-0.00287056 0.00337865 0.579264)
(0.00538103 0.0062944 0.78228)
(0.00471297 0.00767375 0.815217)
(0.00367074 0.0088895 0.841557)
(0.00234656 0.0097855 0.859941)
(0.000807379 0.0102656 0.869386)
(-0.000807416 0.0102656 0.869386)
(-0.00234659 0.0097855 0.859941)
(-0.00367077 0.00888949 0.841557)
(-0.004713 0.00767374 0.815217)
(-0.00538106 0.00629439 0.78228)
(0.00824727 0.00960265 0.968136)
(0.00720709 0.0115865 1.00651)
(0.00560629 0.0133355 1.03701)
(0.00357544 0.0146218 1.05824)
(0.00122892 0.0153092 1.06912)
(-0.00122897 0.0153092 1.06912)
(-0.00357549 0.0146218 1.05824)
(-0.00560634 0.0133355 1.03701)
(-0.00720713 0.0115865 1.00651)
(-0.00824731 0.00960264 0.968136)
(0.0111373 0.0129104 1.13656)
(0.00968449 0.0153913 1.17868)
(0.0075071 0.0175666 1.21191)
(0.00477187 0.0191586 1.23497)
(0.00163753 0.0200059 1.24677)
(-0.00163759 0.0200059 1.24677)
(-0.00477193 0.0191586 1.23497)
(-0.00750715 0.0175666 1.21191)
(-0.00968454 0.0153913 1.17868)
(-0.0111374 0.0129103 1.13656)
(0.0137445 0.015858 1.28746)
(0.0118706 0.018642 1.33172)
(0.00915626 0.0210594 1.36638)
(0.0057967 0.0228166 1.39034)
(0.00198522 0.0237474 1.40257)
(-0.0019853 0.0237474 1.40257)
(-0.00579678 0.0228166 1.39034)
(-0.00915633 0.0210594 1.36638)
(-0.0118706 0.018642 1.33172)
(-0.0137446 0.015858 1.28746)
(0.0158099 0.0181404 1.42081)
(0.0135436 0.0209781 1.46579)
(0.0103841 0.0234082 1.50074)
(0.00654324 0.0251591 1.5248)
(0.00223555 0.0260813 1.53704)
(-0.00223564 0.0260813 1.53704)
(-0.00654333 0.0251591 1.5248)
(-0.0103842 0.0234082 1.50074)
(-0.0135437 0.0209781 1.46579)
(-0.01581 0.0181404 1.42081)
(0.0171624 0.0195441 1.53653)
(0.0145656 0.0221707 1.5812)
(0.0110852 0.0243605 1.61555)
(0.00694484 0.0259217 1.639)
(0.00236576 0.0267378 1.65087)
(-0.00236586 0.0267378 1.65087)
(-0.00694494 0.0259217 1.639)
(-0.0110853 0.0243605 1.61555)
(-0.0145657 0.0221707 1.5812)
(-0.0171625 0.0195441 1.53653)
(0.0177372 0.0201687 1.6343)
(0.0148685 0.022108 1.67876)
(0.0111906 0.0237711 1.71168)
(0.00695855 0.0249385 1.73383)
(0.00236149 0.0255424 1.74496)
(-0.0023616 0.0255424 1.74496)
(-0.00695866 0.0249385 1.73383)
(-0.0111907 0.0237711 1.71168)
(-0.0148686 0.022108 1.67876)
(-0.0177373 0.0201687 1.6343)
(1.23222e-05 1.51572e-05 0.122449)
(8.40143e-06 2.07052e-05 0.128523)
(4.72609e-06 2.43507e-05 0.133425)
(3.48158e-06 2.64431e-05 0.136868)
(1.17014e-06 2.76588e-05 0.138642)
(-1.17246e-06 2.76586e-05 0.138642)
(-3.48386e-06 2.64426e-05 0.136868)
(-4.72825e-06 2.43499e-05 0.133425)
(-8.40353e-06 2.07041e-05 0.128523)
(-1.2324e-05 1.51558e-05 0.122449)
(0.000362599 0.000423683 0.355339)
(0.000316592 0.000528845 0.371966)
(0.000245243 0.000620591 0.385372)
(0.000158327 0.000688393 0.394773)
(5.46087e-05 0.000725239 0.399615)
(-5.46182e-05 0.000725239 0.399615)
(-0.000158336 0.000688391 0.394773)
(-0.000245252 0.000620589 0.385372)
(-0.000316601 0.000528841 0.371966)
(-0.000362606 0.000423679 0.355339)
(0.0010827 0.0012597 0.572926)
(0.000955043 0.00155808 0.598483)
(0.000747642 0.00182351 0.619024)
(0.00048134 0.00202177 0.633404)
(0.000166107 0.0021291 0.640804)
(-0.000166126 0.0021291 0.640804)
(-0.000481358 0.00202177 0.633404)
(-0.000747659 0.0018235 0.619024)
(-0.000955059 0.00155807 0.598483)
(-0.00108271 0.0012597 0.572926)
(0.00212286 0.00246341 0.774813)
(0.00187458 0.00302026 0.807669)
(0.00147013 0.00351793 0.833958)
(0.000944532 0.00388975 0.852323)
(0.000325775 0.00409047 0.861762)
(-0.000325805 0.00409047 0.861762)
(-0.000944561 0.00388975 0.852323)
(-0.00147016 0.00351793 0.833958)
(-0.00187461 0.00302025 0.807669)
(-0.00212288 0.0024634 0.774813)
(0.00336183 0.00388943 0.960682)
(0.00296088 0.00472112 0.999211)
(0.0023185 0.00546325 1.02987)
(0.00148569 0.00601582 1.05123)
(0.000511846 0.00631311 1.0622)
(-0.000511887 0.00631311 1.0622)
(-0.00148573 0.00601581 1.05123)
(-0.00231853 0.00546324 1.02987)
(-0.00296092 0.00472111 0.999211)
(-0.00336187 0.00388942 0.960682)
(0.00466206 0.00537437 1.13029)
(0.00408609 0.00644757 1.17289)
(0.0031885 0.00739963 1.20657)
(0.00203642 0.0081046 1.22998)
(0.000700469 0.00848234 1.24197)
(-0.000700522 0.00848234 1.24197)
(-0.00203647 0.0081046 1.22998)
(-0.00318855 0.00739962 1.20657)
(-0.00408613 0.00644757 1.17289)
(-0.0046621 0.00537436 1.13029)
(0.00588476 0.00675508 1.28342)
(0.00512388 0.00799281 1.32855)
(0.0039789 0.00908036 1.364)
(0.00253105 0.00987989 1.38855)
(0.000868871 0.0103062 1.4011)
(-0.000868936 0.0103062 1.4011)
(-0.00253111 0.00987989 1.38855)
(-0.00397896 0.00908036 1.364)
(-0.00512394 0.00799281 1.32855)
(-0.00588481 0.00675507 1.28342)
(0.00690316 0.00788195 1.41987)
(0.00596299 0.00917522 1.46612)
(0.00460263 0.0102962 1.50219)
(0.0029139 0.0111127 1.52707)
(0.000997869 0.0115453 1.53975)
(-0.000997944 0.0115453 1.53975)
(-0.00291397 0.0111127 1.52707)
(-0.0046027 0.0102962 1.50219)
(-0.00596306 0.00917522 1.46612)
(-0.00690322 0.00788195 1.41987)
(0.00762538 0.00864178 1.53926)
(0.00652487 0.00986808 1.58558)
(0.0049977 0.0109023 1.62135)
(0.00314499 0.0116462 1.64582)
(0.00107367 0.0120371 1.65823)
(-0.00107376 0.0120371 1.65823)
(-0.00314507 0.0116462 1.64582)
(-0.00499777 0.0109023 1.62135)
(-0.00652495 0.00986809 1.58558)
(-0.00762545 0.00864178 1.53926)
(0.00800459 0.00906727 1.64095)
(0.00675802 0.0100042 1.68744)
(0.00511606 0.0108061 1.72199)
(0.00319391 0.0113724 1.7453)
(0.00108599 0.0116665 1.75703)
(-0.00108608 0.0116665 1.75703)
(-0.003194 0.0113724 1.7453)
(-0.00511614 0.0108061 1.72199)
(-0.0067581 0.0100042 1.68744)
(-0.00800466 0.00906727 1.64095)
(7.79665e-06 1.23885e-05 0.122051)
(3.24978e-06 1.61571e-05 0.128097)
(6.58015e-07 1.72802e-05 0.132972)
(1.69257e-07 1.73114e-05 0.136395)
(-2.28796e-08 1.72255e-05 0.13816)
(2.12003e-08 1.72254e-05 0.13816)
(-1.70906e-07 1.7311e-05 0.136395)
(-6.59609e-07 1.72796e-05 0.132972)
(-3.25137e-06 1.61562e-05 0.128097)
(-7.79796e-06 1.23875e-05 0.122051)
(0.000139686 0.000169707 0.354038)
(0.000115831 0.000212177 0.370587)
(8.68334e-05 0.000245632 0.383919)
(5.5101e-05 0.000269192 0.393266)
(1.8846e-05 0.000281726 0.39808)
(-1.88531e-05 0.000281726 0.39808)
(-5.5108e-05 0.000269191 0.393266)
(-8.684e-05 0.00024563 0.383919)
(-0.000115837 0.000212175 0.370587)
(-0.000139692 0.000169703 0.354038)
(0.000419953 0.00049688 0.570837)
(0.000362711 0.000616446 0.596295)
(0.000280367 0.000718339 0.616745)
(0.000179329 0.000793182 0.631059)
(6.16974e-05 0.000833404 0.638425)
(-6.17116e-05 0.000833403 0.638425)
(-0.000179343 0.000793181 0.631059)
(-0.00028038 0.000718337 0.616745)
(-0.000362723 0.000616443 0.596295)
(-0.000419964 0.000496875 0.570837)
(0.000835624 0.000978508 0.772238)
(0.000730397 0.00120481 0.805026)
(0.000569566 0.00140262 0.831253)
(0.000364983 0.00154942 0.849576)
(0.000125742 0.00162847 0.858995)
(-0.000125765 0.00162847 0.858995)
(-0.000365005 0.00154942 0.849576)
(-0.000569587 0.00140262 0.831253)
(-0.000730416 0.0012048 0.805026)
(-0.000835641 0.000978503 0.772238)
(0.00134626 0.00156623 0.958046)
(0.00117992 0.00191091 0.996595)
(0.000921898 0.00221469 1.02727)
(0.000590389 0.0024404 1.04865)
(0.000203362 0.0025618 1.05963)
(-0.000203394 0.0025618 1.05963)
(-0.00059042 0.0024404 1.04865)
(-0.000921928 0.00221469 1.02727)
(-0.00117995 0.0019109 0.996595)
(-0.00134628 0.00156622 0.958046)
(0.00189951 0.00219803 1.12807)
(0.00166182 0.00265214 1.17083)
(0.0012965 0.00305218 1.20466)
(0.000828496 0.00334849 1.22818)
(0.000285083 0.0035074 1.24023)
(-0.000285124 0.0035074 1.24023)
(-0.000828536 0.00334849 1.22818)
(-0.00129654 0.00305217 1.20466)
(-0.00166186 0.00265214 1.17083)
(-0.00189955 0.00219803 1.12807)
(0.00243727 0.00280554 1.2821)
(0.00212232 0.00334013 1.32757)
(0.00164973 0.00380808 1.36331)
(0.00105073 0.00415266 1.38808)
(0.00036095 0.00433666 1.40076)
(-0.000361 0.00433666 1.40076)
(-0.00105078 0.00415266 1.38808)
(-0.00164978 0.00380808 1.36331)
(-0.00212237 0.00334013 1.32757)
(-0.00243731 0.00280554 1.2821)
(0.0029022 0.00332093 1.41985)
(0.00251022 0.00389076 1.46664)
(0.00194095 0.00438393 1.50316)
(0.00123083 0.00474388 1.52839)
(0.000421866 0.00493494 1.54126)
(-0.000421926 0.00493494 1.54126)
(-0.00123089 0.00474388 1.52839)
(-0.001941 0.00438393 1.50316)
(-0.00251028 0.00389076 1.46664)
(-0.00290225 0.00332093 1.41985)
(0.00324914 0.00368823 1.54085)
(0.00278594 0.00423945 1.5879)
(0.00213847 0.00470441 1.62428)
(0.00134818 0.00503956 1.64921)
(0.00046069 0.00521593 1.66186)
(-0.000460756 0.00521593 1.66186)
(-0.00134825 0.00503956 1.64921)
(-0.00213854 0.00470441 1.62428)
(-0.002786 0.00423946 1.5879)
(-0.00324919 0.00368823 1.54085)
(0.00345123 0.00391489 1.64431)
(0.00292023 0.00434731 1.69173)
(0.00221596 0.00471584 1.72702)
(0.00138599 0.00497655 1.75087)
(0.000471703 0.00511209 1.76288)
(-0.000471775 0.00511209 1.76288)
(-0.00138606 0.00497655 1.75087)
(-0.00221603 0.00471584 1.72702)
(-0.00292029 0.00434732 1.69173)
(-0.00345128 0.0039149 1.64431)
(-4.02538e-07 2.33237e-07 0.121872)
(-1.44149e-06 7.32616e-07 0.127909)
(-1.63991e-06 5.66213e-07 0.132777)
(-1.0653e-06 2.57765e-07 0.136194)
(-3.84797e-07 8.2961e-08 0.137956)
(3.8368e-07 8.28824e-08 0.137956)
(1.06419e-06 2.57524e-07 0.136194)
(1.63883e-06 5.65809e-07 0.132777)
(1.44038e-06 7.32017e-07 0.127909)
(4.01626e-07 2.32487e-07 0.121872)
(3.9823e-05 4.78965e-05 0.353466)
(3.27707e-05 6.08328e-05 0.369986)
(2.45578e-05 7.10677e-05 0.383292)
(1.56919e-05 7.84277e-05 0.392621)
(5.37895e-06 8.2397e-05 0.397426)
(-5.38394e-06 8.23968e-05 0.397426)
(-1.56968e-05 7.8427e-05 0.392621)
(-2.45625e-05 7.10665e-05 0.383292)
(-3.27753e-05 6.08311e-05 0.369986)
(-3.98269e-05 4.78943e-05 0.353466)
(0.000136188 0.000159853 0.569906)
(0.000117979 0.000200413 0.595324)
(9.16378e-05 0.000235307 0.615738)
(5.89048e-05 0.000261335 0.630028)
(2.0311e-05 0.000275439 0.637382)
(-2.03212e-05 0.000275439 0.637382)
(-5.89147e-05 0.000261334 0.630028)
(-9.16474e-05 0.000235306 0.615738)
(-0.000117988 0.00020041 0.595324)
(-0.000136196 0.00015985 0.569905)
(0.000288035 0.000335072 0.771053)
(0.000253046 0.000416226 0.803807)
(0.000198417 0.000487815 0.830006)
(0.000127718 0.000541624 0.848312)
(4.40948e-05 0.000570797 0.857723)
(-4.41113e-05 0.000570796 0.857723)
(-0.000127734 0.000541623 0.848312)
(-0.000198432 0.000487813 0.830006)
(-0.00025306 0.000416223 0.803807)
(-0.000288048 0.000335069 0.771053)
(0.000482751 0.000558355 0.956766)
(0.000425644 0.000686752 0.995313)
(0.0003345 0.000800933 1.02599)
(0.000215159 0.000886751 1.04738)
(7.42706e-05 0.000933199 1.05836)
(-7.42941e-05 0.000933199 1.05836)
(-0.000215182 0.000886749 1.04738)
(-0.000334522 0.000800931 1.02599)
(-0.000425665 0.000686749 0.995312)
(-0.000482769 0.000558352 0.956766)
(0.000701374 0.00080719 1.12689)
(0.000617637 0.000981407 1.1697)
(0.000484759 0.00113627 1.20358)
(0.00031114 0.00125222 1.22714)
(0.000107292 0.00131477 1.23922)
(-0.000107323 0.00131477 1.23922)
(-0.00031117 0.00125222 1.22714)
(-0.000484788 0.00113627 1.20358)
(-0.000617664 0.000981405 1.1697)
(-0.000701398 0.000807187 1.12689)
(0.000921057 0.00105469 1.28122)
(0.000807622 0.00126483 1.32681)
(0.00063162 0.00145049 1.36266)
(0.000404056 0.00158858 1.38753)
(0.000139099 0.00166275 1.40026)
(-0.000139137 0.00166275 1.40026)
(-0.000404093 0.00158858 1.38753)
(-0.000631656 0.00145049 1.36266)
(-0.000807656 0.00126483 1.32681)
(-0.000921086 0.00105469 1.28122)
(0.00111797 0.00127267 1.41946)
(0.000973941 0.00150147 1.46645)
(0.00075763 0.00170134 1.50316)
(0.000482502 0.00184856 1.52853)
(0.00016572 0.00192711 1.54147)
(-0.000165765 0.00192711 1.54147)
(-0.000482546 0.00184856 1.52853)
(-0.000757672 0.00170134 1.50316)
(-0.00097398 0.00150147 1.46645)
(-0.001118 0.00127267 1.41946)
(0.0012723 0.00143687 1.54109)
(0.00109866 0.00166269 1.58843)
(0.00084817 0.00185472 1.62507)
(0.000536858 0.00199417 1.65019)
(0.000183802 0.00206786 1.66295)
(-0.000183852 0.00206786 1.66295)
(-0.000536908 0.00199417 1.65019)
(-0.000848217 0.00185472 1.62507)
(-0.00109871 0.00166269 1.58843)
(-0.00127235 0.00143687 1.54109)
(0.00137083 0.00154899 1.64527)
(0.00116698 0.00173091 1.69307)
(0.000890122 0.00188549 1.72869)
(0.000558691 0.00199536 1.75277)
(0.00019046 0.00205265 1.7649)
(-0.000190515 0.00205265 1.7649)
(-0.000558746 0.00199536 1.75277)
(-0.000890174 0.00188549 1.72869)
(-0.00116703 0.00173091 1.69307)
(-0.00137088 0.00154899 1.64527)
(3.53765e-08 8.01314e-07 0.121843)
(-8.23324e-07 1.19019e-06 0.127877)
(-1.03307e-06 1.02484e-06 0.132741)
(-7.49677e-07 7.38134e-07 0.136156)
(-2.78235e-07 5.55134e-07 0.137917)
(2.77558e-07 5.55086e-07 0.137917)
(7.49006e-07 7.37985e-07 0.136156)
(1.03236e-06 1.02458e-06 0.132741)
(8.22612e-07 1.18977e-06 0.127877)
(-3.59717e-08 8.00842e-07 0.121843)
(1.14946e-05 1.50638e-05 0.353331)
(8.17681e-06 1.93808e-05 0.369839)
(5.48269e-06 2.21444e-05 0.383133)
(3.29697e-06 2.39026e-05 0.392454)
(1.09281e-06 2.47963e-05 0.397254)
(-1.09609e-06 2.47961e-05 0.397254)
(-3.30019e-06 2.39021e-05 0.392454)
(-5.48594e-06 2.21437e-05 0.383133)
(-8.17984e-06 1.93795e-05 0.369839)