/*--------------------------------*- C++ -*----------------------------------*\
| =========                 |                                                 |
| \\      /  F ield         | OpenFOAM: The Open Source CFD Toolbox           |
|  \\    /   O peration     | Version:  2106                                  |
|   \\  /    A nd           | Website:  www.openfoam.com                      |
|    \\/     M anipulation  |                                                 |
\*---------------------------------------------------------------------------*/
FoamFile
{
    version     2.0;
    format      ascii;
    arch        "LSB;label=32;scalar=64";
    class       volVectorField;
    location    "0.52";
    object      U;
}
// * * * * * * * * * * * * * * * * * * * * * * * * * * * * * * * * * * * * * //

dimensions      [0 1 -1 0 0 0 0];

internalField   nonuniform List<vector> 
10000
(
(0.0629444 0.0741696 0.347296)
(0.053684 0.0843503 0.361867)
(0.0400922 0.0935566 0.373302)
(0.0248716 0.0999773 0.381201)
(0.00842888 0.103297 0.385214)
(-0.00842889 0.103297 0.385214)
(-0.0248716 0.0999773 0.381201)
(-0.0400922 0.0935565 0.373302)
(-0.053684 0.0843503 0.361867)
(-0.0629444 0.0741696 0.347296)
(0.173054 0.205311 0.732412)
(0.146077 0.232702 0.75218)
(0.109053 0.256794 0.766909)
(0.0674705 0.27347 0.776866)
(0.0228384 0.282071 0.781845)
(-0.0228384 0.282071 0.781845)
(-0.0674705 0.27347 0.776866)
(-0.109053 0.256794 0.766909)
(-0.146077 0.232702 0.75218)
(-0.173054 0.205311 0.732412)
(0.223831 0.265783 0.929518)
(0.186818 0.297641 0.945438)
(0.138575 0.32546 0.956566)
(0.0853094 0.34449 0.963912)
(0.0288055 0.354239 0.967514)
(-0.0288056 0.354239 0.967514)
(-0.0853095 0.34449 0.963912)
(-0.138575 0.32546 0.956566)
(-0.186818 0.297641 0.945438)
(-0.223831 0.265783 0.929518)
(0.238806 0.283112 1.02922)
(0.197356 0.313098 1.03978)
(0.145482 0.339334 1.04649)
(0.0891445 0.357077 1.05077)
(0.0300318 0.366109 1.05281)
(-0.0300319 0.366109 1.05281)
(-0.0891446 0.357077 1.05077)
(-0.145482 0.339334 1.04649)
(-0.197357 0.313098 1.03978)
(-0.238806 0.283112 1.02922)
(0.236707 0.280129 1.07784)
(0.194006 0.306181 1.08382)
(0.142253 0.329113 1.08696)
(0.0868133 0.344486 1.08885)
(0.0291896 0.352262 1.08969)
(-0.0291897 0.352262 1.08969)
(-0.0868134 0.344486 1.08885)
(-0.142253 0.329113 1.08696)
(-0.194006 0.306181 1.08382)
(-0.236708 0.280129 1.07784)
(0.225487 0.266368 1.09902)
(0.1834 0.287775 1.1016)
(0.133832 0.306771 1.10224)
(0.0813696 0.31943 1.10248)
(0.0273106 0.325795 1.10253)
(-0.0273107 0.325795 1.10253)
(-0.0813697 0.31943 1.10248)
(-0.133832 0.306771 1.10224)
(-0.1834 0.287775 1.1016)
(-0.225487 0.266368 1.09902)
(0.20892 0.246173 1.10562)
(0.168628 0.262704 1.10589)
(0.122494 0.277521 1.10495)
(0.0742118 0.287374 1.10417)
(0.0248658 0.292307 1.10374)
(-0.024866 0.292307 1.10374)
(-0.0742119 0.287374 1.10417)
(-0.122494 0.277521 1.10495)
(-0.168628 0.262704 1.10589)
(-0.20892 0.246173 1.10563)
(0.189364 0.222298 1.10488)
(0.151656 0.234009 1.10368)
(0.109694 0.244647 1.10185)
(0.0662381 0.251755 1.10052)
(0.0221586 0.255312 1.09982)
(-0.0221588 0.255312 1.09982)
(-0.0662383 0.251754 1.10052)
(-0.109694 0.244647 1.10185)
(-0.151656 0.234009 1.10368)
(-0.189364 0.222298 1.10488)
(0.168368 0.196553 1.10082)
(0.13387 0.203645 1.09872)
(0.0964334 0.210244 1.09647)
(0.058047 0.214782 1.0949)
(0.0193886 0.217074 1.0941)
(-0.0193888 0.217074 1.0941)
(-0.0580472 0.214782 1.0949)
(-0.0964336 0.210244 1.09647)
(-0.133871 0.203645 1.09872)
(-0.168368 0.196553 1.10082)
(0.147106 0.170594 1.09569)
(0.116485 0.171597 1.09312)
(0.0833274 0.174804 1.09072)
(0.0499726 0.177144 1.0891)
(0.0166619 0.178346 1.08829)
(-0.0166622 0.178346 1.08829)
(-0.0499729 0.177144 1.0891)
(-0.0833276 0.174804 1.09072)
(-0.116485 0.171597 1.09312)
(-0.147107 0.170593 1.09569)
(0.0112594 0.0143837 0.268521)
(0.00945878 0.0176934 0.280876)
(0.00714211 0.0203516 0.290993)
(0.00452093 0.022174 0.298035)
(0.00154681 0.0231233 0.301639)
(-0.00154683 0.0231233 0.301639)
(-0.00452095 0.0221739 0.298035)
(-0.00714214 0.0203516 0.290993)
(-0.0094588 0.0176934 0.280876)
(-0.0112595 0.0143837 0.268521)
(0.0546434 0.0661228 0.63424)
(0.0469168 0.0795502 0.656349)
(0.0359042 0.0910539 0.674079)
(0.0226974 0.0992039 0.686272)
(0.00776704 0.103482 0.692461)
(-0.00776711 0.103482 0.692461)
(-0.0226975 0.0992039 0.686272)
(-0.0359042 0.0910539 0.674079)
(-0.0469168 0.0795501 0.656349)
(-0.0546435 0.0661227 0.63424)
(0.0980915 0.117176 0.883006)
(0.0836764 0.138568 0.906996)
(0.0636953 0.156922 0.925812)
(0.0400237 0.169873 0.938595)
(0.0136552 0.176635 0.945031)
(-0.0136554 0.176635 0.945031)
(-0.0400239 0.169873 0.938595)
(-0.0636954 0.156922 0.925812)
(-0.0836765 0.138568 0.906996)
(-0.0980916 0.117176 0.883006)
(0.134146 0.159067 1.0519)
(0.113454 0.185223 1.07402)
(0.0858025 0.207557 1.09096)
(0.0536075 0.223201 1.10232)
(0.0182375 0.231324 1.10799)
(-0.0182376 0.231324 1.10799)
(-0.0536076 0.223201 1.10232)
(-0.0858027 0.207557 1.09096)
(-0.113454 0.185223 1.07402)
(-0.134146 0.159067 1.0519)
(0.159859 0.188482 1.16555)
(0.134035 0.216325 1.18424)
(0.100727 0.239939 1.19816)
(0.0626051 0.256358 1.20737)
(0.0212433 0.264835 1.21193)
(-0.0212435 0.264835 1.21193)
(-0.0626053 0.256358 1.20737)
(-0.100727 0.239939 1.19816)
(-0.134036 0.216325 1.18424)
(-0.159859 0.188482 1.16555)
(0.175304 0.205629 1.24082)
(0.145734 0.232668 1.25564)
(0.108851 0.255398 1.26634)
(0.067329 0.271094 1.27332)
(0.0227913 0.279155 1.27674)
(-0.0227916 0.279155 1.27674)
(-0.0673292 0.271094 1.27332)
(-0.108852 0.255398 1.26634)
(-0.145734 0.232668 1.25564)
(-0.175305 0.205628 1.24082)
(0.181577 0.211891 1.28962)
(0.149649 0.236234 1.30077)
(0.111115 0.256454 1.30854)
(0.0684161 0.270331 1.31352)
(0.0231068 0.277423 1.31593)
(-0.0231072 0.277423 1.31593)
(-0.0684164 0.270331 1.31352)
(-0.111115 0.256454 1.30854)
(-0.149649 0.236234 1.30077)
(-0.181577 0.211891 1.28962)
(0.180049 0.208939 1.32038)
(0.147096 0.22922 1.32835)
(0.108595 0.24579 1.33368)
(0.0665774 0.257107 1.33702)
(0.0224377 0.262873 1.33861)
(-0.0224381 0.262873 1.33861)
(-0.0665778 0.257107 1.33702)
(-0.108595 0.24579 1.33368)
(-0.147096 0.22922 1.32835)
(-0.180049 0.208939 1.32038)
(0.172204 0.198477 1.33898)
(0.139515 0.213784 1.34441)
(0.102413 0.225934 1.34785)
(0.0625185 0.23425 1.34992)
(0.0210249 0.238483 1.35089)
(-0.0210254 0.238483 1.35089)
(-0.0625189 0.23425 1.34992)
(-0.102414 0.225934 1.34785)
(-0.139516 0.213784 1.34441)
(-0.172204 0.198477 1.33898)
(0.159629 0.183317 1.34963)
(0.128473 0.191094 1.35315)
(0.0935367 0.198505 1.35519)
(0.056813 0.203614 1.35634)
(0.0190595 0.206213 1.35684)
(-0.01906 0.206213 1.35684)
(-0.0568135 0.203614 1.35634)
(-0.0935372 0.198505 1.35519)
(-0.128474 0.191094 1.35315)
(-0.159629 0.183316 1.34963)
(0.00112066 0.00125078 0.159232)
(0.00113297 0.00159763 0.167614)
(0.000883406 0.00200634 0.174612)
(0.000591317 0.00230919 0.179565)
(0.000206054 0.002477 0.182129)
(-0.000206078 0.002477 0.182129)
(-0.000591342 0.00230919 0.179565)
(-0.000883431 0.00200633 0.174612)
(-0.00113299 0.00159762 0.167614)
(-0.00112068 0.00125076 0.159232)
(0.0180124 0.0209009 0.445929)
(0.0161993 0.0254974 0.466316)
(0.012678 0.0298244 0.483056)
(0.00814211 0.0330201 0.494805)
(0.00280553 0.0347367 0.500851)
(-0.0028056 0.0347367 0.500851)
(-0.00814218 0.0330201 0.494805)
(-0.0126781 0.0298244 0.483056)
(-0.0161994 0.0254974 0.466316)
(-0.0180125 0.0209009 0.445929)
(0.0410131 0.0477403 0.691599)
(0.0362201 0.0573473 0.719396)
(0.0281361 0.0661114 0.741854)
(0.0179213 0.0725187 0.757484)
(0.00615286 0.0759304 0.765487)
(-0.00615299 0.0759304 0.765487)
(-0.0179214 0.0725186 0.757484)
(-0.0281362 0.0661113 0.741854)
(-0.0362202 0.0573472 0.719396)
(-0.0410132 0.0477403 0.691599)
(0.0657752 0.0766277 0.895689)
(0.0573217 0.0907492 0.927062)
(0.0441961 0.103384 0.951984)
(0.0279692 0.112522 0.96918)
(0.00957329 0.117353 0.97794)
(-0.00957347 0.117353 0.97794)
(-0.0279694 0.112522 0.96918)
(-0.0441963 0.103384 0.951984)
(-0.0573219 0.0907491 0.927062)
(-0.0657754 0.0766276 0.895689)
(0.0878303 0.102208 1.06166)
(0.0756671 0.119365 1.09377)
(0.0579231 0.134488 1.11884)
(0.0364485 0.145319 1.13598)
(0.0124414 0.151007 1.14467)
(-0.0124416 0.151007 1.14467)
(-0.0364488 0.145319 1.13598)
(-0.0579233 0.134488 1.11884)
(-0.0756674 0.119365 1.09377)
(-0.0878305 0.102208 1.06166)
(0.104954 0.121822 1.19445)
(0.0894641 0.140263 1.22538)
(0.0680118 0.156293 1.2491)
(0.0425722 0.167671 1.26519)
(0.0144944 0.173609 1.2733)
(-0.0144947 0.173609 1.2733)
(-0.0425725 0.16767 1.26519)
(-0.0680121 0.156293 1.2491)
(-0.0894643 0.140263 1.22538)
(-0.104954 0.121822 1.19445)
(0.116321 0.134532 1.29928)
(0.0981396 0.152578 1.32785)
(0.0741026 0.16803 1.34939)
(0.046152 0.178908 1.36388)
(0.0156745 0.184555 1.37115)
(-0.0156749 0.184555 1.37115)
(-0.0461524 0.178908 1.36388)
(-0.0741029 0.16803 1.34939)
(-0.09814 0.152578 1.32785)
(-0.116321 0.134532 1.29928)
(0.121833 0.140259 1.381)
(0.101751 0.15645 1.40661)
(0.0763168 0.170067 1.42563)
(0.0472988 0.179582 1.4383)
(0.0160251 0.184497 1.44463)
(-0.0160256 0.184497 1.44463)
(-0.0472992 0.179582 1.4383)
(-0.0763172 0.170067 1.42563)
(-0.101751 0.15645 1.40661)
(-0.121833 0.140259 1.381)
(0.121912 0.139468 1.44382)
(0.100811 0.152646 1.46637)
(0.0750862 0.163406 1.48284)
(0.0462966 0.170893 1.49371)
(0.0156454 0.174745 1.4991)
(-0.0156459 0.174745 1.4991)
(-0.0462971 0.170893 1.49371)
(-0.0750867 0.163406 1.48284)
(-0.100811 0.152646 1.46637)
(-0.121913 0.139468 1.44382)
(0.117395 0.133971 1.4912)
(0.0961326 0.141847 1.51119)
(0.0708982 0.148981 1.52524)
(0.043444 0.15392 1.53438)
(0.0146369 0.156448 1.53887)
(-0.0146374 0.156448 1.53887)
(-0.0434445 0.15392 1.53438)
(-0.0708986 0.148981 1.52524)
(-0.096133 0.141847 1.51119)
(-0.117396 0.133971 1.4912)
(0.000712072 0.000936039 0.139626)
(0.000555963 0.00117374 0.146519)
(0.000380359 0.00134205 0.152131)
(0.000235618 0.00144149 0.15607)
(7.88573e-05 0.00149118 0.158102)
(-7.88785e-05 0.00149118 0.158102)
(-0.00023564 0.00144148 0.15607)
(-0.00038038 0.00134204 0.152131)
(-0.000555985 0.00117373 0.146519)
(-0.000712091 0.000936023 0.139626)
(0.00699275 0.00836488 0.400106)
(0.00606976 0.0103104 0.418371)
(0.00466604 0.011993 0.433155)
(0.00297618 0.0132002 0.4435)
(0.00102199 0.0138423 0.448824)
(-0.00102206 0.0138423 0.448824)
(-0.00297625 0.0132002 0.4435)
(-0.00466611 0.011993 0.433155)
(-0.00606983 0.0103103 0.418371)
(-0.00699281 0.00836483 0.400106)
(0.0171241 0.0202255 0.635573)
(0.014933 0.0246229 0.662485)
(0.0115536 0.0284807 0.684096)
(0.00735908 0.0312801 0.699154)
(0.00252697 0.0327688 0.706882)
(-0.00252709 0.0327688 0.706882)
(-0.00735919 0.0312801 0.699154)
(-0.0115538 0.0284807 0.684096)
(-0.0149331 0.0246228 0.662485)
(-0.0171242 0.0202254 0.635573)
(0.0293406 0.0344574 0.844056)
(0.0255022 0.0414432 0.876856)
(0.0197049 0.0475711 0.902943)
(0.0125109 0.0520131 0.921027)
(0.00428994 0.054368 0.930278)
(-0.00429011 0.054368 0.930278)
(-0.0125111 0.052013 0.921027)
(-0.0197051 0.0475711 0.902943)
(-0.0255024 0.0414431 0.876856)
(-0.0293408 0.0344573 0.844055)
(0.0416036 0.0486404 1.02549)
(0.0359358 0.0577578 1.0617)
(0.0276538 0.0657096 1.09017)
(0.0174877 0.0714444 1.10981)
(0.00598494 0.0744717 1.11981)
(-0.00598516 0.0744717 1.11981)
(-0.0174879 0.0714444 1.10981)
(-0.027654 0.0657095 1.09017)
(-0.035936 0.0577578 1.0617)
(-0.0416038 0.0486403 1.02549)
(0.0524389 0.0610372 1.18108)
(0.0449484 0.0714893 1.2186)
(0.034405 0.0805193 1.24777)
(0.021661 0.0869881 1.26776)
(0.00739716 0.0903861 1.27792)
(-0.00739744 0.0903861 1.27792)
(-0.0216613 0.086988 1.26776)
(-0.0344053 0.0805192 1.24777)
(-0.0449486 0.0714893 1.2186)
(-0.0524391 0.0610371 1.18108)
(0.0608808 0.0705309 1.31268)
(0.0517362 0.0813733 1.34986)
(0.0393619 0.0906204 1.37844)
(0.0246662 0.097195 1.39792)
(0.00840393 0.100631 1.40778)
(-0.00840426 0.100631 1.40778)
(-0.0246665 0.097195 1.39792)
(-0.0393622 0.0906204 1.37844)
(-0.0517365 0.0813732 1.34986)
(-0.060881 0.0705308 1.31268)
(0.0663586 0.076464 1.42242)
(0.0558711 0.0867383 1.45808)
(0.0422335 0.0953562 1.48519)
(0.0263371 0.101434 1.50355)
(0.00895136 0.104593 1.5128)
(-0.00895175 0.104593 1.5128)
(-0.0263375 0.101434 1.50355)
(-0.0422339 0.0953562 1.48519)
(-0.0558714 0.0867382 1.45808)
(-0.0663589 0.0764639 1.42242)
(0.0686943 0.0785943 1.5124)
(0.0572856 0.0874403 1.54588)
(0.0429952 0.0946521 1.571)
(0.0266676 0.0997021 1.58787)
(0.00903905 0.102313 1.59632)
(-0.00903947 0.102313 1.59632)
(-0.026668 0.0997021 1.58787)
(-0.0429956 0.0946521 1.571)
(-0.0572859 0.0874403 1.54588)
(-0.0686946 0.0785943 1.5124)
(0.068082 0.0777061 1.58445)
(0.0561841 0.0835592 1.61601)
(0.0417414 0.0886494 1.63883)
(0.0257186 0.092181 1.65394)
(0.00868866 0.0939932 1.66144)
(-0.00868911 0.0939932 1.66144)
(-0.0257191 0.092181 1.65394)
(-0.0417418 0.0886494 1.63883)
(-0.0561845 0.0835592 1.61601)
(-0.0680824 0.0777061 1.58445)
(0.000127073 0.000138513 0.128817)
(0.000118038 0.00018189 0.135251)
(8.71746e-05 0.000226637 0.140481)
(5.96162e-05 0.00025801 0.144157)
(2.05823e-05 0.000275784 0.146055)
(-2.05996e-05 0.000275782 0.146055)
(-5.96337e-05 0.000258006 0.144157)
(-8.71921e-05 0.00022663 0.140481)
(-0.000118055 0.000181879 0.135251)
(-0.000127089 0.000138499 0.128817)
(0.00246101 0.00284628 0.373247)
(0.00220152 0.00352901 0.390712)
(0.0017242 0.00415845 0.404857)
(0.00111421 0.0046267 0.414781)
(0.000384695 0.00488082 0.419895)
(-0.000384751 0.00488082 0.419895)
(-0.00111426 0.00462669 0.414781)
(-0.00172426 0.00415843 0.404857)
(-0.00220158 0.00352898 0.390712)
(-0.00246106 0.00284625 0.373247)
(0.00670141 0.00777469 0.599421)
(0.00595329 0.00953047 0.625865)
(0.00466553 0.0111256 0.647164)
(0.00299775 0.012312 0.662063)
(0.00103346 0.0129514 0.669726)
(-0.00103355 0.0129513 0.669726)
(-0.00299785 0.012312 0.662063)
(-0.00466562 0.0111256 0.647164)
(-0.00595339 0.00953043 0.625865)
(-0.00670149 0.00777464 0.599421)
(0.0122894 0.0142611 0.805755)
(0.0108446 0.0172889 0.83903)
(0.0084735 0.0200133 0.86564)
(0.00542113 0.0220291 0.884186)
(0.00186563 0.0231099 0.893704)
(-0.00186577 0.0231099 0.893704)
(-0.00542127 0.0220291 0.884186)
(-0.00847364 0.0200132 0.86564)
(-0.0108447 0.0172888 0.839029)
(-0.0122895 0.0142611 0.805754)
(0.0183616 0.0212741 0.991474)
(0.0160841 0.0254845 1.02949)
(0.0125104 0.0292373 1.05963)
(0.00796972 0.0319953 1.08055)
(0.00273731 0.0334666 1.09126)
(-0.00273749 0.0334666 1.09126)
(-0.0079699 0.0319953 1.08055)
(-0.0125105 0.0292372 1.05963)
(-0.0160843 0.0254844 1.02948)
(-0.0183618 0.021274 0.991474)
(0.0241626 0.027917 1.15647)
(0.0209957 0.0330047 1.19728)
(0.0162412 0.0374903 1.22934)
(0.0103003 0.040762 1.25149)
(0.00353014 0.0424982 1.2628)
(-0.00353037 0.0424982 1.2628)
(-0.0103005 0.0407619 1.25149)
(-0.0162414 0.0374903 1.22934)
(-0.0209959 0.0330047 1.19728)
(-0.0241628 0.0279169 1.15647)
(0.0290925 0.033487 1.30111)
(0.0250585 0.0390093 1.343)
(0.0192648 0.0438141 1.37559)
(0.01216 0.0472899 1.39801)
(0.0041578 0.0491245 1.40942)
(-0.00415807 0.0491245 1.40942)
(-0.0121603 0.0472898 1.39801)
(-0.0192651 0.043814 1.37559)
(-0.0250587 0.0390092 1.343)
(-0.0290927 0.0334869 1.30111)
(0.0327136 0.0374716 1.42605)
(0.0279136 0.0429209 1.4676)
(0.0213161 0.0475855 1.49963)
(0.0133868 0.0509289 1.52155)
(0.00456566 0.0526833 1.53266)
(-0.00456596 0.0526833 1.53265)
(-0.0133871 0.0509288 1.52155)
(-0.0213164 0.0475855 1.49963)
(-0.0279138 0.0429209 1.4676)
(-0.0327138 0.0374715 1.42605)
(0.0347946 0.0395808 1.53198)
(0.0293924 0.0444613 1.57227)
(0.0222732 0.0485207 1.60297)
(0.0139063 0.0514018 1.62379)
(0.00472881 0.0529031 1.63429)
(-0.00472915 0.0529031 1.63429)
(-0.0139067 0.0514018 1.62379)
(-0.0222736 0.0485207 1.60297)
(-0.0293927 0.0444613 1.57227)
(-0.0347948 0.0395808 1.53198)
(0.0353168 0.0401178 1.61948)
(0.0294718 0.0435539 1.65866)
(0.0220858 0.0465285 1.6874)
(0.0136881 0.0486101 1.70661)
(0.00463748 0.0496841 1.71622)
(-0.00463783 0.0496841 1.71622)
(-0.0136884 0.0486101 1.70661)
(-0.0220861 0.0465285 1.6874)
(-0.0294721 0.0435539 1.65866)
(-0.0353171 0.0401178 1.61948)
(7.76925e-05 0.000105172 0.125959)
(5.41054e-05 0.000133461 0.1322)
(3.29149e-05 0.000149745 0.137241)
(1.99947e-05 0.000157682 0.140779)
(6.47265e-06 0.00016144 0.142603)
(-6.48627e-06 0.000161439 0.142603)
(-2.00084e-05 0.000157679 0.140779)
(-3.29289e-05 0.000149739 0.137241)
(-5.41185e-05 0.000133453 0.1322)
(-7.77048e-05 0.000105162 0.125959)
(0.00100402 0.00120029 0.365054)
(0.00086129 0.00148894 0.382087)
(0.000657896 0.00173146 0.395823)
(0.000419792 0.00190524 0.40545)
(0.00014404 0.00199806 0.410408)
(-0.000144084 0.00199805 0.410408)
(-0.000419836 0.00190523 0.40545)
(-0.000657941 0.00173144 0.395823)
(-0.000861331 0.00148892 0.382087)
(-0.00100405 0.00120026 0.365054)
(0.00276483 0.00325664 0.587459)
(0.00241263 0.00400567 0.613487)
(0.00187191 0.00465859 0.634397)
(0.00119709 0.00513737 0.649022)
(0.000411796 0.005394 0.656544)
(-0.000411871 0.005394 0.656544)
(-0.00119716 0.00513736 0.649022)
(-0.00187198 0.00465857 0.634397)
(-0.0024127 0.00400564 0.613487)
(-0.00276489 0.0032566 0.587459)
(0.00517829 0.00606091 0.792352)
(0.00453193 0.0073878 0.825523)
(0.00352753 0.0085564 0.852029)
(0.002254 0.00941688 0.870517)
(0.000775344 0.00987768 0.880011)
(-0.000775453 0.00987768 0.880011)
(-0.00225411 0.00941687 0.870517)
(-0.00352763 0.00855638 0.852029)
(-0.00453203 0.00738776 0.825523)
(-0.00517837 0.00606085 0.792352)
(0.00792812 0.00923612 0.979188)
(0.00692305 0.0111409 1.01766)
(0.00538208 0.0128188 1.04819)
(0.00343096 0.0140518 1.06942)
(0.00117898 0.0147103 1.0803)
(-0.00117912 0.0147103 1.0803)
(-0.0034311 0.0140518 1.06942)
(-0.00538222 0.0128188 1.04819)
(-0.00692318 0.0111408 1.01766)
(-0.00792824 0.00923607 0.979188)
(0.0106934 0.0124023 1.1477)
(0.00929139 0.0147792 1.18968)
(0.0071979 0.0168618 1.22276)
(0.00457327 0.0183844 1.24567)
(0.00156899 0.0191944 1.25739)
(-0.00156917 0.0191944 1.25739)
(-0.00457344 0.0183844 1.24567)
(-0.00719806 0.0168617 1.22276)
(-0.00929154 0.0147792 1.18968)
(-0.0106936 0.0124023 1.1477)
(0.0131796 0.015214 1.29785)
(0.0113736 0.0178753 1.34169)
(0.00876726 0.0201842 1.37595)
(0.00554786 0.0218609 1.39959)
(0.00189952 0.0227486 1.41165)
(-0.00189973 0.0227486 1.41165)
(-0.00554807 0.0218609 1.39959)
(-0.00876745 0.0201842 1.37595)
(-0.0113737 0.0178753 1.34169)
(-0.0131797 0.0152139 1.29785)
(0.0151396 0.0173802 1.42974)
(0.0129589 0.0200863 1.47398)
(0.00992944 0.0224016 1.50828)
(0.00625387 0.0240684 1.53183)
(0.00213616 0.0249459 1.54381)
(-0.00213639 0.0249459 1.54381)
(-0.0062541 0.0240684 1.53183)
(-0.00992966 0.0224016 1.50828)
(-0.0129591 0.0200863 1.47398)
(-0.0151398 0.0173801 1.42974)
(0.0164126 0.0186996 1.54343)
(0.0139184 0.0211977 1.58705)
(0.0105864 0.0232789 1.62051)
(0.00662957 0.0247617 1.6433)
(0.00225785 0.0255365 1.65483)
(-0.00225811 0.0255365 1.65483)
(-0.00662982 0.0247617 1.6433)
(-0.0105866 0.0232789 1.62051)
(-0.0139186 0.0211977 1.58705)
(-0.0164128 0.0186996 1.54343)
(0.016941 0.0192687 1.63881)
(0.0141922 0.0211071 1.68192)
(0.0106764 0.0226842 1.71377)
(0.00663643 0.023791 1.73515)
(0.00225174 0.0243633 1.74588)
(-0.00225201 0.0243633 1.74588)
(-0.00663669 0.023791 1.73515)
(-0.0106766 0.0226842 1.71376)
(-0.0141924 0.0211071 1.68192)
(-0.0169412 0.0192687 1.63881)
(1.09931e-05 1.34795e-05 0.124526)
(7.36052e-06 1.86052e-05 0.130703)
(3.96942e-06 2.19778e-05 0.135689)
(2.94744e-06 2.38899e-05 0.139189)
(9.81117e-07 2.49971e-05 0.140994)
(-9.91442e-07 2.49963e-05 0.140994)
(-2.95772e-06 2.38875e-05 0.139189)
(-3.97967e-06 2.19737e-05 0.135689)
(-7.37056e-06 1.85994e-05 0.130703)
(-1.1002e-05 1.3472e-05 0.124526)
(0.000339519 0.000396719 0.361005)
(0.000296237 0.000495497 0.377877)
(0.000229276 0.000581713 0.391475)
(0.000147937 0.00064537 0.401009)
(5.10023e-05 0.000679943 0.405919)
(-5.10353e-05 0.000679941 0.405919)
(-0.00014797 0.000645364 0.401009)
(-0.000229308 0.000581702 0.391475)
(-0.000296269 0.000495481 0.377877)
(-0.000339546 0.000396699 0.361005)
(0.00101714 0.00118369 0.581412)
(0.000896763 0.00146442 0.607263)
(0.000701673 0.00171418 0.628029)
(0.000451581 0.00190065 0.64256)
(0.000155796 0.00200155 0.650036)
(-0.000155853 0.00200155 0.650036)
(-0.000451638 0.00190064 0.64256)
(-0.000701728 0.00171417 0.628029)
(-0.000896816 0.00146439 0.607263)
(-0.00101718 0.00118366 0.581412)
(0.00199637 0.00231734 0.785236)
(0.00176203 0.0028412 0.818333)
(0.00138126 0.00330938 0.844792)
(0.000887148 0.00365899 0.863263)
(0.000305916 0.00384766 0.872752)
(-0.000305998 0.00384765 0.872752)
(-0.000887229 0.00365898 0.863263)
(-0.00138134 0.00330936 0.844792)
(-0.0017621 0.00284117 0.818333)
(-0.00199644 0.0023173 0.785236)
(0.00316174 0.00365919 0.972096)
(0.00278318 0.00444086 1.01071)
(0.00217837 0.00513826 1.0414)
(0.00139543 0.00565724 1.06276)
(0.000480649 0.00593636 1.07372)
(-0.000480755 0.00593636 1.07372)
(-0.00139554 0.00565723 1.06276)
(-0.00217848 0.00513824 1.0414)
(-0.00278327 0.00444083 1.01071)
(-0.00316183 0.00365915 0.972096)
(0.00438257 0.00505401 1.14174)
(0.00383889 0.0060612 1.18419)
(0.00299417 0.00695446 1.21768)
(0.00191162 0.0076155 1.24093)
(0.000657399 0.00796956 1.25283)
(-0.00065753 0.00796956 1.25283)
(-0.00191175 0.00761549 1.24093)
(-0.00299429 0.00695443 1.21768)
(-0.003839 0.00606117 1.18419)
(-0.00438267 0.00505397 1.14174)
(0.00552768 0.00634755 1.29403)
(0.00480998 0.00750706 1.3387)
(0.00373326 0.00852551 1.37369)
(0.00237391 0.00927379 1.39789)
(0.000814748 0.00967259 1.41026)
(-0.000814902 0.00967259 1.41026)
(-0.00237406 0.00927378 1.39789)
(-0.00373341 0.00852549 1.37369)
(-0.00481011 0.00750703 1.33869)
(-0.0055278 0.00634751 1.29403)
(0.00647812 0.00739938 1.42886)
(0.00559228 0.00860844 1.4743)
(0.00431435 0.00965604 1.50964)
(0.00273039 0.0104186 1.53398)
(0.000934827 0.0108225 1.54637)
(-0.000935001 0.0108225 1.54637)
(-0.00273056 0.0104186 1.53398)
(-0.00431451 0.00965602 1.50964)
(-0.00559244 0.00860842 1.4743)
(-0.00647825 0.00739934 1.42885)
(0.00714848 0.00810422 1.54601)
(0.00611322 0.00924797 1.59119)
(0.00468031 0.0102123 1.62597)
(0.00294431 0.0109057 1.64973)
(0.00100497 0.01127 1.66176)
(-0.00100516 0.01127 1.66176)
(-0.00294449 0.0109057 1.64973)
(-0.00468049 0.0102123 1.62597)
(-0.00611339 0.00924795 1.59119)
(-0.00714863 0.00810419 1.54601)
(0.00749674 0.00849305 1.64508)
(0.00632653 0.0093646 1.6901)
(0.00478773 0.010111 1.72347)
(0.00298816 0.010638 1.74595)
(0.00101587 0.0109116 1.75724)
(-0.00101607 0.0109116 1.75724)
(-0.00298835 0.010638 1.74595)
(-0.00478791 0.010111 1.72347)
(-0.0063267 0.00936459 1.6901)
(-0.0074969 0.00849303 1.64508)
(7.21561e-06 1.16392e-05 0.124166)
(2.82696e-06 1.52033e-05 0.130318)
(3.65439e-07 1.62115e-05 0.135279)
(-4.50875e-08 1.61706e-05 0.138761)
(-1.00328e-07 1.60396e-05 0.140555)
(9.27037e-08 1.6039e-05 0.140555)
(3.75584e-08 1.61688e-05 0.138761)
(-3.72794e-07 1.62086e-05 0.135279)
(-2.83428e-06 1.51991e-05 0.130318)
(-7.22183e-06 1.16339e-05 0.124166)
(0.000127646 0.000155626 0.359817)
(0.000105269 0.000194702 0.376615)
(7.85741e-05 0.000225247 0.390144)
(4.97253e-05 0.000246631 0.399627)
(1.69773e-05 0.000257967 0.40451)
(-1.70016e-05 0.000257966 0.40451)
(-4.97492e-05 0.000246626 0.399627)
(-7.85973e-05 0.000225239 0.390144)
(-0.000105292 0.00019469 0.376615)
(-0.000127665 0.000155611 0.359817)
(0.000384785 0.0004561 0.579496)
(0.000331519 0.000566072 0.605255)
(0.000255789 0.00065947 0.625934)
(0.000163412 0.000727903 0.640403)
(5.61781e-05 0.000764629 0.647847)
(-5.62197e-05 0.000764627 0.647847)
(-0.000163453 0.000727895 0.640403)
(-0.000255828 0.000659458 0.625934)
(-0.000331557 0.000566054 0.605255)
(-0.000384818 0.000456078 0.579496)
(0.000766682 0.000898891 0.782872)
(0.0006691 0.001107 0.815906)
(0.000521167 0.00128853 0.842305)
(0.000333712 0.00142305 0.860736)
(0.000114913 0.00149542 0.870205)
(-0.000114973 0.00149542 0.870205)
(-0.00033377 0.00142304 0.860736)
(-0.000521224 0.00128852 0.842305)
(-0.000669153 0.00110697 0.815906)
(-0.00076673 0.000898865 0.782872)
(0.00123593 0.0014393 0.969679)
(0.00108194 0.00175606 1.00831)
(0.000844588 0.00203485 1.03901)
(0.000540551 0.00224174 1.06039)
(0.000186126 0.00235295 1.07136)
(-0.000186203 0.00235295 1.07136)
(-0.000540627 0.00224173 1.06039)
(-0.000844661 0.00203483 1.03901)
(-0.00108201 0.00175604 1.00831)
(-0.00123599 0.00143927 0.969679)
(0.001744 0.00201983 1.13972)
(0.00152419 0.00243674 1.18231)
(0.0011882 0.00280358 1.21594)
(0.00075888 0.00307503 1.23929)
(0.000261043 0.00322052 1.25125)
(-0.000261138 0.00322052 1.25125)
(-0.000758973 0.00307502 1.23929)
(-0.00118829 0.00280356 1.21594)
(-0.00152428 0.00243671 1.18231)
(-0.00174408 0.0020198 1.13972)
(0.00223709 0.00257717 1.29284)
(0.00194616 0.00306731 1.33782)
(0.00151171 0.00349593 1.37309)
(0.000962346 0.00381125 1.3975)
(0.000330489 0.00397953 1.40998)
(-0.0003306 0.00397953 1.40998)
(-0.000962455 0.00381124 1.3975)
(-0.00151182 0.00349591 1.37309)
(-0.00194626 0.00306729 1.33782)
(-0.00223718 0.00257714 1.29284)
(0.00266242 0.00304882 1.42888)
(0.0023008 0.00357046 1.47482)
(0.00177786 0.00402151 1.51059)
(0.0011269 0.00435047 1.53524)
(0.000386141 0.004525 1.5478)
(-0.000386267 0.00452499 1.5478)
(-0.00112703 0.00435046 1.53524)
(-0.00177798 0.0040215 1.51058)
(-0.00230091 0.00357044 1.47482)
(-0.00266252 0.00304879 1.42888)
(0.00297864 0.0033835 1.54753)
(0.00255207 0.00388716 1.59338)
(0.00195789 0.00431177 1.62873)
(0.00123387 0.00461769 1.6529)
(0.000421529 0.00477862 1.66515)
(-0.000421667 0.00477861 1.66515)
(-0.001234 0.00461768 1.6529)
(-0.00195801 0.00431176 1.62873)
(-0.00255219 0.00388714 1.59338)
(-0.00297875 0.00338348 1.54753)
(0.00316175 0.00358781 1.64823)
(0.00267388 0.00398219 1.6941)
(0.00202822 0.00431841 1.72816)
(0.00126821 0.00455624 1.75113)
(0.000431537 0.00467986 1.76268)
(-0.000431683 0.00467986 1.76268)
(-0.00126835 0.00455624 1.75113)
(-0.00202836 0.00431841 1.72816)
(-0.00267401 0.00398219 1.6941)
(-0.00316187 0.0035878 1.64823)
(-6.3911e-07 -1.07218e-07 0.124006)
(-1.57329e-06 2.93008e-07 0.13015)
(-1.71293e-06 8.99458e-08 0.135103)
(-1.12154e-06 -2.3404e-07 0.13858)
(-4.05834e-07 -4.19286e-07 0.140373)
(4.00358e-07 -4.19705e-07 0.140373)
(1.11617e-06 -2.35303e-07 0.13858)
(1.70775e-06 8.78933e-08 0.135103)
(1.56824e-06 2.9007e-07 0.13015)
(6.34908e-07 -1.10799e-07 0.124006)
(3.43139e-05 4.13817e-05 0.3593)
(2.8027e-05 5.27187e-05 0.376072)
(2.08819e-05 6.16269e-05 0.389578)
(1.33056e-05 6.80025e-05 0.399044)
(4.54894e-06 7.14319e-05 0.403919)
(-4.56628e-06 7.14307e-05 0.403919)
(-1.33226e-05 6.79989e-05 0.399044)
(-2.08982e-05 6.16211e-05 0.389578)
(-2.80429e-05 5.27105e-05 0.376072)
(-3.43272e-05 4.13717e-05 0.3593)
(0.000119582 0.000140509 0.578651)
(0.000103356 0.000176437 0.604374)
(8.01523e-05 0.000207282 0.625021)
(5.14731e-05 0.000230258 0.639468)
(1.77327e-05 0.000242698 0.6469)
(-1.77624e-05 0.000242696 0.6469)
(-5.15022e-05 0.000230252 0.639468)
(-8.01803e-05 0.000207273 0.625021)
(-0.000103383 0.000176424 0.604373)
(-0.000119605 0.000140494 0.578651)
(0.000254825 0.000296633 0.781794)
(0.000223609 0.000368838 0.814797)
(0.000175197 0.00043247 0.841171)
(0.000112714 0.000480265 0.859585)
(3.88958e-05 0.000506167 0.869047)
(-3.89382e-05 0.000506165 0.869047)
(-0.000112755 0.000480258 0.859585)
(-0.000175237 0.000432459 0.841171)
(-0.000223647 0.000368822 0.814797)
(-0.000254858 0.000296615 0.781794)
(0.00042878 0.000496187 0.968514)
(0.000377759 0.000610647 1.00714)
(0.000296713 0.000712376 1.03785)
(0.000190784 0.000788801 1.05923)
(6.58345e-05 0.000830153 1.0702)
(-6.58895e-05 0.00083015 1.0702)
(-0.000190838 0.000788793 1.05923)
(-0.000296764 0.000712364 1.03785)
(-0.000377808 0.000610629 1.00714)
(-0.000428823 0.000496167 0.968513)
(0.000624329 0.000718845 1.13864)
(0.000549441 0.000874248 1.18128)
(0.00043105 0.00101233 1.21495)
(0.000276583 0.00111568 1.23834)
(9.53497e-05 0.00117142 1.25032)
(-9.54171e-05 0.00117142 1.25032)
(-0.000276649 0.00111567 1.23834)
(-0.000431113 0.00101232 1.21495)
(-0.0005495 0.00087423 1.18128)
(-0.000624382 0.000718823 1.13864)
(0.000820833 0.000940307 1.29203)
(0.000719342 0.00112772 1.33712)
(0.000562368 0.00129324 1.3725)
(0.000359657 0.00141632 1.39699)
(0.000123785 0.00148241 1.40951)
(-0.000123864 0.0014824 1.40951)
(-0.000359735 0.00141632 1.39699)
(-0.000562442 0.00129323 1.37249)
(-0.000719412 0.0011277 1.33712)
(-0.000820895 0.000940286 1.29203)
(0.000996839 0.00113519 1.42851)
(0.000868 0.0013391 1.47463)
(0.000675005 0.00151718 1.51057)
(0.000429783 0.00164833 1.53535)
(0.000147582 0.00171829 1.54798)
(-0.000147672 0.00171828 1.54798)
(-0.000429871 0.00164832 1.53535)
(-0.000675089 0.00151717 1.51057)
(-0.000868078 0.00133908 1.47463)
(-0.00099691 0.00113517 1.42851)
(0.00113461 0.00128176 1.54773)
(0.000979411 0.00148278 1.59384)
(0.000755935 0.00165374 1.62942)
(0.000478396 0.00177787 1.65377)
(0.000163757 0.00184347 1.66611)
(-0.000163856 0.00184347 1.66611)
(-0.000478493 0.00177787 1.65377)
(-0.000756028 0.00165373 1.62942)
(-0.000979497 0.00148277 1.59384)
(-0.00113469 0.00128175 1.54773)
(0.0012225 0.00138142 1.64908)
(0.00104052 0.00154324 1.6953)
(0.000793581 0.00168078 1.72965)
(0.000498048 0.00177855 1.75282)
(0.000169762 0.00182954 1.76448)
(-0.000169866 0.00182953 1.76448)
(-0.000498151 0.00177855 1.75282)
(-0.000793679 0.00168077 1.72965)
(-0.00104061 0.00154323 1.6953)
(-0.00122258 0.00138141 1.64908)
(-4.42461e-09 7.17573e-07 0.123984)
(-8.10563e-07 1.0749e-06 0.130125)
(-1.00629e-06 9.11963e-07 0.135076)
(-7.35991e-07 6.32782e-07 0.138551)
(-2.7438e-07 4.53211e-07 0.140342)
(2.70583e-07 4.52917e-07 0.140342)
(7.32285e-07 6.31913e-07 0.138551)
(1.00278e-06 9.10539e-07 0.135076)
(8.07269e-07 1.07296e-06 0.130125)
(1.65505e-09 7.15283e-07 0.123984)
(9.51305e-06 1.26879e-05 0.359188)
(6.52179e-06 1.63966e-05 0.37595)
(4.21709e-06 1.86809e-05 0.389445)
(2.47473e-06 2.00828e-05 0.398903)
(8.05782e-07 2.07811e-05 0.403774)
(-8.17804e-07 2.07802e-05 0.403774)
(-2.48647e-06 2.00803e-05 0.398903)
(-4.22825e-06 1.86768e-05 0.389445)
(-6.53219e-06 1.63911e-05 0.37595)