/*--------------------------------*- C++ -*----------------------------------*\
| =========                 |                                                 |
| \\      /  F ield         | OpenFOAM: The Open Source CFD Toolbox           |
|  \\    /   O peration     | Version:  2106                                  |
|   \\  /    A nd           | Website:  www.openfoam.com                      |
|    \\/     M anipulation  |                                                 |
\*---------------------------------------------------------------------------*/
FoamFile
{
    version     2.0;
    format      ascii;
    arch        "LSB;label=32;scalar=64";
    class       surfaceScalarField;
    location    "0.79";
    object      phi;
}
// * * * * * * * * * * * * * * * * * * * * * * * * * * * * * * * * * * * * * //

dimensions      [0 3 -1 0 0 0 0];

oriented        oriented;

internalField   nonuniform List<scalar> 
29100
(
0.00118096
0.150403
0.0809207
-2.80828e-10
0.00145322
0.15528
0.0889268
0.00124709
0.1587
0.0956148
0.000710226
0.160977
0.100402
-1.0465e-09
0.16212
0.102895
-0.000710227
0.16212
0.102895
-0.00124709
0.160977
0.100402
-0.00145322
0.1587
0.0956148
-0.00118096
0.15528
0.0889268
0.150403
0.0809207
-1.85878e-09
0.0023645
0.208254
0.155456
-2.74107e-10
0.0032844
0.212839
0.16898
0.00292943
0.215911
0.180038
0.00169465
0.217828
0.187858
-3.48571e-09
0.218768
0.191899
-0.00169465
0.218768
0.191899
-0.00292943
0.217828
0.187858
-0.0032844
0.215911
0.180038
-0.00236451
0.212839
0.16898
0.208254
0.155456
-5.00458e-09
0.00301642
0.219398
0.18468
-3.67448e-10
0.0042665
0.222324
0.199703
0.00382985
0.224231
0.211796
0.00221822
0.225272
0.220272
-5.86622e-09
0.225755
0.224629
-0.00221823
0.225755
0.224629
-0.00382986
0.225272
0.220272
-0.00426651
0.224231
0.211796
-0.00301643
0.222324
0.199703
0.219398
0.18468
-7.90629e-09
0.00344525
0.20618
0.19178
-5.13633e-10
0.00480673
0.207439
0.20694
0.00430577
0.208207
0.218991
0.00248942
0.208447
0.227377
-8.27044e-09
0.208518
0.23167
-0.00248944
0.208518
0.23167
-0.00430579
0.208447
0.227377
-0.00480675
0.208207
0.218991
-0.00344526
0.207439
0.20694
0.20618
0.19178
-1.06227e-08
0.00367462
0.181268
0.186412
-6.5426e-10
0.00505751
0.181244
0.201209
0.00451816
0.181146
0.212851
0.00260881
0.180817
0.220906
-1.07253e-08
0.180601
0.225015
-0.00260883
0.180601
0.225015
-0.00451818
0.180817
0.220906
-0.00505752
0.181146
0.212851
-0.00367464
0.181244
0.201209
0.181268
0.186412
-1.32309e-08
0.00375963
0.15194
0.173911
-7.78186e-10
0.00512355
0.151066
0.188191
0.00456769
0.150403
0.199336
0.00263593
0.14974
0.207007
-1.32291e-08
0.149363
0.21091
-0.00263596
0.149363
0.21091
-0.00456772
0.14974
0.207007
-0.00512357
0.150403
0.199336
-0.00375964
0.151066
0.188191
0.15194
0.173911
-1.57395e-08
0.00376775
0.122275
0.157407
-9.42872e-10
0.00509865
0.12092
0.17117
0.00453864
0.119944
0.181841
0.00261901
0.119137
0.189151
-1.57574e-08
0.118702
0.192862
-0.00261904
0.118702
0.192862
-0.00453867
0.119137
0.189151
-0.00509868
0.119944
0.181841
-0.00376777
0.12092
0.17117
0.122275
0.157407
-1.81453e-08
0.00373354
0.0944893
0.138731
-1.17214e-09
0.00504502
0.0929113
0.152032
0.00449076
0.0918177
0.162289
0.00259257
0.0910131
0.169283
-1.8296e-08
0.0905969
0.172826
-0.0025926
0.0905969
0.172826
-0.00449079
0.0910131
0.169283
-0.00504505
0.0918177
0.162289
-0.00373356
0.0929113
0.152032
0.0944893
0.138731
-2.04039e-08
0.00370203
0.0696965
0.118937
-1.45397e-09
0.00502709
0.0680604
0.13184
0.00447623
0.0670211
0.141741
0.00258338
0.0663333
0.148464
-2.08094e-08
0.0659929
0.151861
-0.00258342
0.0659929
0.151861
-0.00447627
0.0663333
0.148464
-0.00502713
0.0670211
0.141741
-0.00370206
0.0680604
0.13184
0.0696965
0.118937
-2.24489e-08
0.0039224
0.0986258
-1.76333e-09
0.0481618
0.00521694
0.111191
0.0468673
0.00458885
0.120783
0.0460453
0.00262845
0.127268
0.0455482
-2.31345e-08
0.130537
0.0453044
-0.00262849
0.130537
0.0453044
-0.00458889
0.127268
0.0455482
-0.00521697
0.120783
0.0460453
-0.00392243
0.111191
0.0468673
0.0986258
-2.40811e-08
0.0481618
-0.000240346
0.0365306
0.0446304
-3.42476e-10
-0.000242388
0.0397053
0.0492236
-0.000170351
0.0423879
0.0531548
-8.48257e-05
0.0443064
0.05601
-2.08385e-09
0.0452988
0.0575112
8.48215e-05
0.0452988
0.0575112
0.000170348
0.0443064
0.05601
0.000242384
0.0423879
0.0531548
0.000240343
0.0397053
0.0492236
0.0365306
0.0446304
-3.26212e-09
6.49868e-05
0.0807042
0.111218
-4.74321e-10
0.000253397
0.0864956
0.122001
0.000302699
0.0913118
0.131065
0.000202735
0.0946864
0.137578
-7.05241e-09
0.0964199
0.14098
-0.000202749
0.0964199
0.14098
-0.000302712
0.0946864
0.137578
-0.000253409
0.0913118
0.131065
-6.49976e-05
0.0864956
0.122001
0.0807042
0.111218
-9.55641e-09
0.00061498
0.112216
0.152553
-5.64587e-10
0.00103342
0.118928
0.166852
0.00101108
0.124438
0.178693
0.000617915
0.128223
0.187129
-1.22673e-08
0.130152
0.191514
-0.00061794
0.130152
0.191514
-0.00101111
0.128223
0.187129
-0.00103344
0.124438
0.178693
-0.000614998
0.118928
0.166852
0.112216
0.152553
-1.56569e-08
0.00123446
0.128728
0.174034
-6.63801e-10
0.00187792
0.135124
0.190102
0.00176701
0.140307
0.203233
0.00105533
0.143794
0.212518
-1.76139e-08
0.145555
0.217322
-0.00105537
0.145555
0.217322
-0.00176705
0.143794
0.212518
-0.00187795
0.140307
0.203233
-0.00123448
0.135124
0.190102
0.128728
0.174034
-2.14169e-08
0.00184031
0.13197
0.18133
-8.02498e-10
0.00268058
0.137361
0.198131
0.00247739
0.141661
0.2117
0.00146346
0.144486
0.221228
-2.30387e-08
0.145895
0.226139
-0.0014635
0.145895
0.226139
-0.00247743
0.144486
0.221228
-0.00268062
0.141661
0.2117
-0.00184034
0.137361
0.198131
0.13197
0.18133
-2.68047e-08
0.00238856
0.124972
0.178521
-1.01173e-09
0.00339479
0.129085
0.19546
0.00310503
0.13229
0.208996
0.00182286
0.134335
0.218439
-2.84873e-08
0.13534
0.223288
-0.00182292
0.13534
0.223288
-0.00310508
0.134335
0.218439
-0.00339483
0.13229
0.208996
-0.0023886
0.129085
0.19546
0.124972
0.178521
-3.17676e-08
0.00285607
0.110955
0.168568
-1.37631e-09
0.00400412
0.113785
0.185321
0.0036414
0.11591
0.198584
0.00213052
0.117218
0.207779
-3.38408e-08
0.117849
0.212484
-0.00213059
0.117849
0.212484
-0.00364146
0.117218
0.207779
-0.00400417
0.11591
0.198584
-0.00285611
0.113785
0.185321
0.110955
0.168568
-3.62405e-08
0.003237
0.092834
0.153615
-1.9401e-09
0.00451821
0.0945099
0.170026
0.00410016
0.0957072
0.18291
0.00239523
0.0964155
0.191791
-3.89098e-08
0.0967508
0.196319
-0.0023953
0.0967508
0.196319
-0.00410023
0.0964155
0.191791
-0.00451827
0.0957072
0.18291
-0.00323705
0.0945099
0.170026
0.092834
0.153615
-4.01263e-08
0.00356716
0.0730058
0.135198
-2.92689e-09
0.00498624
0.0737194
0.151211
0.00451908
0.0742313
0.163684
0.00263577
0.0745304
0.172233
-4.33156e-08
0.074672
0.176576
-0.00263586
0.074672
0.176576
-0.00451916
0.0745304
0.172233
-0.0049863
0.0742313
0.163684
-0.00356721
0.0737194
0.151211
0.0730058
0.135198
-4.34765e-08
0.00399358
0.114408
-4.19717e-09
0.0532297
0.0055324
0.130033
0.0533388
0.00497491
0.142097
0.0534756
0.00288554
0.150315
0.0535734
-4.6482e-08
0.154476
0.053619
-0.00288563
0.154476
0.053619
-0.00497499
0.150315
0.0535734
-0.00553247
0.142097
0.0534756
-0.00399364
0.130033
0.0533388
0.114408
-4.59361e-08
0.0532297
3.93095e-05
0.00999796
0.0345932
-3.1439e-10
3.52834e-05
0.011032
0.0381956
2.97355e-05
0.0119096
0.0412507
1.64814e-05
0.0125612
0.043462
-2.49023e-09
0.0129044
0.0446233
-1.64862e-05
0.0129044
0.0446233
-2.97401e-05
0.0125612
0.043462
-3.52877e-05
0.0119096
0.0412507
-3.93136e-05
0.0110321
0.0381956
0.00999796
0.0345932
-3.81724e-09
0.00028155
0.0303174
0.0906166
-4.7433e-10
0.000382386
0.0330286
0.0999039
0.000341779
0.0352973
0.107717
0.000199375
0.0369336
0.113348
-8.53027e-09
0.0377884
0.116296
-0.000199392
0.0377884
0.116296
-0.000341795
0.0369336
0.113348
-0.0003824
0.0352973
0.107717
-0.000281563
0.0330286
0.0999039
0.0303174
0.0906166
-1.15207e-08
0.000601355
0.0512385
0.13103
-6.77409e-10
0.000853333
0.0552437
0.144385
0.000773125
0.0585512
0.155519
0.000453166
0.0608837
0.163499
-1.49618e-08
0.062092
0.167664
-0.000453195
0.062092
0.167664
-0.000773152
0.0608837
0.163499
-0.000853358
0.0585512
0.155519
-0.000601376
0.0552437
0.144385
0.0512385
0.13103
-1.90159e-08
0.000968996
0.0670614
0.157242
-8.87245e-10
0.00139069
0.0716442
0.173279
0.00127024
0.0753829
0.186521
0.000746006
0.0779683
0.195957
-2.16379e-08
0.0792955
0.200865
-0.000746049
0.0792955
0.200865
-0.00127028
0.0779683
0.195957
-0.00139073
0.0753829
0.186521
-0.000969026
0.0716442
0.173279
0.0670614
0.157242
-2.61522e-08
0.00135936
0.0757881
0.171244
-1.13448e-09
0.0019472
0.080289
0.188899
0.00178299
0.0839123
0.203335
0.00104741
0.0863701
0.213562
-2.8403e-08
0.0876193
0.218862
-0.00104746
0.0876193
0.218862
-0.00178304
0.0863701
0.213562
-0.00194725
0.0839123
0.203335
-0.0013594
0.080289
0.188899
0.0757881
0.171244
-3.28045e-08
0.00175205
0.0774336
0.175124
-1.47412e-09
0.00249274
0.0813847
0.193624
0.00228151
0.0845112
0.208609
0.00133951
0.0865894
0.219162
-3.51063e-08
0.0876341
0.224612
-0.00133958
0.0876341
0.224612
-0.00228157
0.0865894
0.219162
-0.00249279
0.0845112
0.208609
-0.00175209
0.0813848
0.193624
0.0774336
0.175124
-3.88397e-08
0.00212373
0.0730694
0.170808
-2.01371e-09
0.00300304
0.0762076
0.189619
0.00274583
0.0786336
0.204719
0.0016112
0.0802127
0.215291
-4.15487e-08
0.0809975
0.220732
-0.00161128
0.0809975
0.220732
-0.0027459
0.0802127
0.215291
-0.00300311
0.0786336
0.204719
-0.00212378
0.0762076
0.189619
0.0730695
0.170808
-4.40928e-08
0.00245829
0.0642473
0.159978
-2.77322e-09
0.00346804
0.0664748
0.178749
0.00316933
0.0681538
0.193688
0.00185881
0.0692271
0.204087
-4.74389e-08
0.0697557
0.209419
-0.0018589
0.0697557
0.209419
-0.00316941
0.0692271
0.204087
-0.00346811
0.0681538
0.193688
-0.00245835
0.0664749
0.178749
0.0642473
0.159978
-4.83535e-08
0.00276823
0.0526292
0.144047
-3.89546e-09
0.00390357
0.0539804
0.16257
0.00356166
0.0549927
0.177187
0.00208597
0.0556375
0.187298
-5.23448e-08
0.0559546
0.192463
-0.00208608
0.0559546
0.192463
-0.00356176
0.0556375
0.187298
-0.00390365
0.0549928
0.177187
-0.00276829
0.0539804
0.16257
0.0526292
0.144047
-5.15706e-08
0.00311159
0.124183
-5.14554e-09
0.0397427
0.00435328
0.142375
0.0403969
0.00394948
0.156572
0.0409211
0.00230374
0.166325
0.0412731
-5.56644e-08
0.171287
0.0414471
-0.00230385
0.171287
0.0414471
-0.00394957
0.166325
0.0412731
-0.00435337
0.156572
0.0409211
-0.00311165
0.142375
0.0403969
0.124183
-5.34253e-08
0.0397427
-3.16227e-05
0.00408451
0.0305403
-3.51978e-10
-4.51576e-05
0.00449781
0.0337113
-3.6397e-05
0.00484851
0.0363935
-2.00618e-05
0.00510928
0.0383364
-2.40753e-09
0.00524588
0.0393573
2.0057e-05
0.00524588
0.0393573
3.63925e-05
0.00510928
0.0383364
4.51533e-05
0.00484852
0.0363935
3.16186e-05
0.00449781
0.0337113
0.00408451
0.0305403
-3.71313e-09
1.02211e-05
0.0126844
0.0820065
-6.25712e-10
1.76205e-05
0.0138993
0.090495
2.20299e-05
0.0149288
0.0976328
1.56936e-05
0.0156792
0.102784
-8.37772e-09
0.0160727
0.105484
-1.57099e-05
0.0160727
0.105484
-2.20454e-05
0.0156792
0.102784
-1.76342e-05
0.0149288
0.0976328
-1.02331e-05
0.0138993
0.090495
0.0126844
0.0820065
-1.13334e-08
0.000124022
0.0225814
0.121009
-8.9985e-10
0.000188066
0.0245994
0.133621
0.000180594
0.0262982
0.144157
0.000110021
0.0275176
0.151731
-1.49e-08
0.0281543
0.155692
-0.00011005
0.0281543
0.155692
-0.000180622
0.0275176
0.151731
-0.000188091
0.0262982
0.144157
-0.000124044
0.0245994
0.133621
0.0225814
0.121009
-1.9059e-08
0.00029515
0.031312
0.148216
-1.16278e-09
0.000440094
0.0338829
0.163851
0.000414881
0.0360262
0.176818
0.00024875
0.0375421
0.186099
-2.17509e-08
0.0383287
0.190939
-0.000248792
0.0383287
0.190939
-0.00041492
0.0375421
0.186099
-0.00044013
0.0360262
0.176818
-0.00029518
0.033883
0.163851
0.0313121
0.148216
-2.63978e-08
0.000507947
0.0373508
0.164697
-1.47029e-09
0.000746653
0.0401328
0.18241
0.000698421
0.0424224
0.196987
0.000416045
0.0440174
0.207369
-2.87141e-08
0.0448387
0.212768
-0.000416101
0.0448387
0.212768
-0.000698473
0.0440174
0.207369
-0.000746699
0.0424224
0.196987
-0.000507987
0.0401328
0.18241
0.0373508
0.164697
-3.32017e-08
0.000746342
0.0400432
0.171685
-1.8744e-09
0.00108363
0.0427142
0.190705
0.00100818
0.0448753
0.206231
0.000598255
0.0463563
0.217233
-3.55941e-08
0.0471124
0.222937
-0.000598324
0.0471124
0.222937
-0.00100824
0.0463563
0.217233
-0.00108369
0.0448753
0.206231
-0.00074639
0.0427142
0.190705
0.0400432
0.171685
-3.93285e-08
0.000993003
0.0394063
0.170452
-2.48011e-09
0.00142925
0.0417203
0.190177
0.0013248
0.043552
0.206146
0.000784169
0.0447862
0.217402
-4.21607e-08
0.0454106
0.223218
-0.000784251
0.0454106
0.223218
-0.00132487
0.0447862
0.217402
-0.00142932
0.043552
0.206146
-0.000993057
0.0417204
0.190177
0.0394063
0.170452
-4.45971e-08
0.00123491
0.0359182
0.162232
-3.31903e-09
0.0017701
0.037723
0.182211
0.0016365
0.0391185
0.198255
0.000966757
0.0400441
0.209499
-4.80776e-08
0.0405086
0.215288
-0.00096685
0.0405087
0.215288
-0.00163659
0.0400441
0.209499
-0.00177018
0.0391185
0.198255
-0.00123497
0.0377231
0.182211
0.0359182
0.162232
-4.87938e-08
0.00147621
0.0303225
0.148167
-4.54503e-09
0.00210855
0.0315659
0.168095
0.00194181
0.0325121
0.183961
0.00114386
0.0331341
0.195006
-5.28707e-08
0.0334447
0.200671
-0.00114397
0.0334447
0.200671
-0.00194191
0.0331341
0.195006
-0.00210863
0.0325121
0.18396
-0.00147627
0.0315659
0.168095
0.0303225
0.148167
-5.18302e-08
0.00173141
0.129298
-5.89532e-09
0.0234759
0.00245495
0.149023
0.0241946
0.00224792
0.164531
0.0247604
0.00131857
0.175247
0.0251413
-5.59363e-08
0.180719
0.0253316
-0.00131868
0.180719
0.0253316
-0.00224802
0.175247
0.0251413
-0.00245503
0.164531
0.0247604
-0.00173148
0.149023
0.0241946
0.129298
-5.33175e-08
0.0234759
2.11178e-06
0.00133676
0.0292014
-2.94042e-10
-2.68108e-07
0.00148431
0.0322294
1.33007e-07
0.00161263
0.0347804
1.46416e-07
0.00171058
0.0366258
-2.09069e-09
0.00176282
0.0375947
-1.50576e-07
0.00176282
0.0375947
-1.36968e-07
0.00171058
0.0366258
2.64323e-07
0.00161263
0.0347804
-2.1152e-06
0.00148431
0.0322293
0.00133676
0.0292014
-3.36852e-09
3.09308e-05
0.00479668
0.0785156
-5.18189e-10
3.99971e-05
0.00529426
0.086676
3.68423e-05
0.00572176
0.0935268
2.1854e-05
0.00603935
0.0984703
-7.4051e-09
0.00620762
0.101062
-2.18686e-05
0.00620762
0.101062
-3.68561e-05
0.00603935
0.0984703
-4.00099e-05
0.00572176
0.0935268
-3.09421e-05
0.00529427
0.086676
0.00479668
0.0785156
-1.04654e-08
8.6301e-05
0.00925532
0.116464
-8.32449e-10
0.000122334
0.010159
0.12872
0.000112923
0.0109286
0.13896
6.70266e-05
0.0114901
0.146326
-1.33413e-08
0.0117859
0.150181
-6.70528e-05
0.0117859
0.150181
-0.000112948
0.0114901
0.146326
-0.000122356
0.0109286
0.13896
-8.63205e-05
0.010159
0.12872
0.00925533
0.116464
-1.74828e-08
0.000167978
0.013602
0.143702
-1.1601e-09
0.000243921
0.0148418
0.159092
0.000226548
0.0158875
0.171877
0.000134542
0.0166391
0.181042
-1.96419e-08
0.0170327
0.185827
-0.00013458
0.0170327
0.185827
-0.000226583
0.0166391
0.181042
-0.000243953
0.0158875
0.171877
-0.000168005
0.0148418
0.159092
0.013602
0.143702
-2.42156e-08
0.000272996
0.0170016
0.161025
-1.5442e-09
0.000397918
0.0184326
0.178694
0.000370332
0.0196258
0.193277
0.000219879
0.020471
0.203688
-2.60802e-08
0.0209104
0.209111
-0.00021993
0.0209104
0.209111
-0.00037038
0.020471
0.203688
-0.00039796
0.0196258
0.193277
-0.000273031
0.0184327
0.178694
0.0170016
0.161025
-3.0486e-08
0.000395963
0.0189542
0.169336
-2.037e-09
0.000575304
0.0204094
0.188549
0.000535229
0.0216046
0.204293
0.000317534
0.0224388
0.215483
-3.24435e-08
0.0228691
0.221296
-0.000317598
0.0228691
0.221296
-0.000535287
0.0224388
0.215483
-0.000575355
0.0216046
0.204293
-0.000396006
0.0204094
0.188549
0.0189542
0.169336
-3.61234e-08
0.000529379
0.0192839
0.169593
-2.7235e-09
0.0007658
0.0206125
0.189737
0.000711617
0.0216836
0.206122
0.000421759
0.0224197
0.217711
-3.8498e-08
0.0227962
0.223713
-0.000421834
0.0227962
0.223713
-0.000711686
0.0224197
0.21771
-0.00076586
0.0216836
0.206122
-0.000529428
0.0206125
0.189737
0.019284
0.169593
-4.09342e-08
0.000666485
0.0180852
0.162764
-3.59841e-09
0.000961274
0.0191762
0.183353
0.000891709
0.020038
0.199971
0.000527747
0.0206214
0.211661
-4.39219e-08
0.0209173
0.217695
-0.000527832
0.0209173
0.217695
-0.000891787
0.0206214
0.211661
-0.000961342
0.0200381
0.199971
-0.000666539
0.0191762
0.183353
0.0180852
0.162764
-4.47121e-08
0.000807252
0.015648
0.149797
-4.78486e-09
0.00115878
0.0164451
0.170475
0.00107064
0.0170626
0.187024
0.000631967
0.0174752
0.198591
-4.82658e-08
0.0176831
0.204537
-0.00063206
0.0176831
0.204537
-0.00107073
0.0174752
0.198591
-0.00115885
0.0170626
0.187024
-0.00080731
0.0164451
0.170474
0.015648
0.149797
-4.73987e-08
0.000946319
0.131609
-6.09417e-09
0.0123906
0.0013505
0.152181
0.0128823
0.00124307
0.168432
0.0132686
0.000731572
0.179703
0.0135306
-5.09585e-08
0.185471
0.0136626
-0.000731671
0.185471
0.0136626
-0.00124316
0.179703
0.0135306
-0.00135057
0.168432
0.0132686
-0.000946378
0.152181
0.0128823
0.131609
-4.86813e-08
0.0123907
-5.57487e-06
0.000583445
0.0286235
-2.74754e-10
-8.31049e-06
0.000641856
0.0315902
-6.58235e-06
0.00069127
0.0340874
-3.62683e-06
0.000728834
0.035894
-1.67004e-09
0.000748579
0.0368425
3.62334e-06
0.000748579
0.0368425
6.57907e-06
0.000728834
0.035894
8.30747e-06
0.000691271
0.0340874
5.57186e-06
0.000641857
0.0315902
0.000583446
0.0286235
-2.88535e-09
-8.50981e-07
0.00203283
0.0770671
-5.25063e-10
-1.8782e-06
0.00223947
0.0850794
-6.1058e-07
0.00241556
0.0918012
1.79822e-07
0.00254646
0.0966519
-5.99497e-09
0.00261581
0.0991945
-1.90885e-07
0.00261581
0.0991945
5.99386e-07
0.00254646
0.0966518
1.86675e-06
0.00241556
0.0918012
8.41389e-07
0.00223948
0.0850794
0.00203283
0.0770671
-8.92514e-09
1.7775e-05
0.00395404
0.114525
-8.22785e-10
2.62961e-05
0.00434847
0.126602
2.57903e-05
0.00468462
0.136691
1.59365e-05
0.00493127
0.143951
-1.10908e-08
0.00506162
0.147751
-1.59585e-05
0.00506162
0.147751
-2.58108e-05
0.00493127
0.143951
-2.63147e-05
0.00468463
0.136691
-1.77914e-05
0.00434848
0.126602
0.00395405
0.114525
-1.49363e-08
5.09667e-05
0.00592625
0.141679
-1.15167e-09
7.58711e-05
0.00649424
0.156922
7.22217e-05
0.00697575
0.169589
4.35985e-05
0.00732476
0.178677
-1.6489e-08
0.00750836
0.183424
-4.36308e-05
0.00750837
0.183424
-7.22518e-05
0.00732477
0.178677
-7.58982e-05
0.00697576
0.169589
-5.09901e-05
0.00649425
0.156922
0.00592626
0.141678
-2.07266e-08
9.74942e-05
0.00757739
0.159276
-1.54596e-09
0.000144417
0.00826367
0.176878
0.000136368
0.00884005
0.19142
8.17453e-05
0.00925262
0.201815
-2.20131e-08
0.00946835
0.207232
-8.17883e-05
0.00946835
0.207232
-0.000136408
0.00925262
0.201815
-0.000144453
0.00884006
0.19142
-9.75242e-05
0.00826369
0.176878
0.0075774
0.159276
-2.61312e-08
0.000155215
0.00864171
0.168117
-2.03233e-09
0.000228315
0.00937009
0.18737
0.000214633
0.00997372
0.203173
0.000128201
0.0104
0.214422
-2.74821e-08
0.0106213
0.220271
-0.000128254
0.0106213
0.220271
-0.000214682
0.0104
0.214422
-0.000228358
0.00997373
0.203173
-0.000155251
0.0093701
0.18737
0.00864173
0.168117
-3.09978e-08
0.000220889
0.00898246
0.169031
-2.67243e-09
0.000322956
0.00967504
0.18933
0.000302635
0.0102392
0.205876
0.000180321
0.010632
0.217601
-3.26863e-08
0.0108343
0.22368
-0.000180385
0.0108343
0.22368
-0.000302693
0.010632
0.217601
-0.000323007
0.0102392
0.205876
-0.000220931
0.00967505
0.18933
0.00898248
0.169031
-3.5153e-08
0.00029148
0.00858955
0.162865
-3.47908e-09
0.000424385
0.00918162
0.183713
0.000396416
0.0096548
0.200583
0.000235619
0.00997933
0.212474
-3.73467e-08
0.0101451
0.21862
-0.000235692
0.0101451
0.21862
-0.000396482
0.00997934
0.212474
-0.000424442
0.00965481
0.200583
-0.000291526
0.00918164
0.183713
0.00858956
0.162865
-3.84107e-08
0.00036715
0.00755907
0.15046
-4.56263e-09
0.000530878
0.00801109
0.171481
0.000493142
0.0083649
0.188352
0.00029206
0.00860406
0.200167
-4.10866e-08
0.00872521
0.206249
-0.000292139
0.00872522
0.206249
-0.000493215
0.00860406
0.200167
-0.00053094
0.00836491
0.188352
-0.000367199
0.0080111
0.171481
0.00755908
0.15046
-4.07078e-08
0.000443022
0.132654
-5.69193e-09
0.00607106
0.000636818
0.153635
0.00636388
0.000589294
0.17025
0.0065951
0.000347935
0.181796
0.00675285
-4.34359e-08
0.187711
0.00683266
-0.000348019
0.187711
0.00683266
-0.00058937
0.181796
0.00675286
-0.000636882
0.170249
0.0065951
-0.000443073
0.153635
0.00636389
0.132654
-4.17814e-08
0.00607107
-8.42837e-07
0.000189972
0.0284344
-2.49608e-10
-1.63594e-06
0.000210423
0.0313806
-1.18943e-06
0.000228217
0.0338588
-6.35263e-07
0.000242186
0.0356513
-1.31813e-09
0.000249638
0.0365922
6.32637e-07
0.000249638
0.0365922
1.18689e-06
0.000242186
0.0356513
1.63348e-06
0.000228218
0.0338588
8.40423e-07
0.000210423
0.0313806
0.000189973
0.0284344
-2.28557e-09
1.85148e-06
0.000741614
0.0765136
-5.43729e-10
1.97477e-06
0.000821234
0.0844685
2.13837e-06
0.000890188
0.0911391
1.3993e-06
0.000942366
0.0959524
-4.79249e-09
0.000970219
0.0984753
-1.40875e-06
0.000970219
0.0984753
-2.1474e-06
0.000942368
0.0959524
-1.98298e-06
0.000890191
0.0911391
-1.85891e-06
0.000821237
0.0844684
0.000741617
0.0765136
-7.11421e-09
9.98847e-06
0.001525
0.113732
-8.43606e-10
1.40231e-05
0.00168551
0.125734
1.33137e-05
0.00182386
0.135758
8.06426e-06
0.00192671
0.142972
-8.76448e-09
0.00198142
0.146748
-8.08148e-06
0.00198143
0.146748
-1.333e-05
0.00192671
0.142972
-1.4038e-05
0.00182386
0.135758
-1.00016e-05
0.00168551
0.125734
0.001525
0.113732
-1.20072e-08
2.42189e-05
0.00237193
0.140807
-1.14477e-09
3.52837e-05
0.00261304
0.155983
3.32328e-05
0.0028195
0.168596
1.99356e-05
0.00297093
0.177646
-1.30684e-08
0.0030511
0.182374
-1.99613e-05
0.0030511
0.182374
-3.32568e-05
0.00297093
0.177646
-3.53053e-05
0.00281951
0.168596
-2.42376e-05
0.00261304
0.155983
0.00237194
0.140807
-1.67505e-08
4.46131e-05
0.00312163
0.158482
-1.48724e-09
6.55166e-05
0.00342371
0.176047
6.16118e-05
0.00367999
0.190564
3.68451e-05
0.00386557
0.200945
-1.75283e-08
0.00396325
0.206357
-3.68794e-05
0.00396325
0.206357
-6.16437e-05
0.00386558
0.200945
-6.5545e-05
0.00368
0.190564
-4.46373e-05
0.00342372
0.176046
0.00312164
0.158482
-2.11936e-08
7.06087e-05
0.00364687
0.167521
-1.90779e-09
0.000103646
0.00397799
0.186782
9.73416e-05
0.00425539
0.202604
5.81095e-05
0.00445362
0.213873
-2.19725e-08
0.00455722
0.219735
-5.81524e-05
0.00455722
0.219735
-9.73813e-05
0.00445363
0.213873
-0.000103681
0.0042554
0.202603
-7.0638e-05
0.00397801
0.186782
0.00364689
0.167521
-2.52087e-08
0.000101014
0.0038699
0.168707
-2.46352e-09
0.000147879
0.00419414
0.189067
0.000138666
0.00446143
0.20568
8.26514e-05
0.00464974
0.217461
-2.62181e-08
0.00474738
0.223572
-8.27025e-05
0.00474738
0.223572
-0.000138713
0.00464975
0.217461
-0.00014792
0.00446144
0.20568
-0.000101048
0.00419416
0.189067
0.00386992
0.168707
-2.86532e-08
0.000134539
0.00376786
0.162833
-3.1465e-09
0.000196374
0.00405297
0.183793
0.000183673
0.00428365
0.200773
0.000109252
0.00444366
0.212755
-3.00308e-08
0.00452588
0.218951
-0.00010931
0.00452588
0.21895
-0.000183727
0.00444367
0.212755
-0.00019642
0.00428366
0.200773
-0.000134576
0.00405299
0.183793
0.00376787
0.162833
-3.13783e-08
0.000170926
0.00336897
0.150688
-4.01083e-09
0.000247706
0.00359319
0.171864
0.000230457
0.0037703
0.188882
0.000136626
0.00389108
0.200814
-3.31066e-08
0.00395256
0.206959
-0.000136691
0.00395256
0.206959
-0.000230516
0.00389108
0.200814
-0.000247756
0.00377031
0.188882
-0.000170966
0.00359321
0.171864
0.00336898
0.150688
-3.33345e-08
0.000205638
0.133071
-4.89062e-09
0.00274712
0.000297008
0.15424
0.00289625
0.000275795
0.171027
0.0030143
0.000163189
0.182704
0.00309523
-3.50716e-08
0.188691
0.00313633
-0.000163257
0.188691
0.00313634
-0.000275857
0.182704
0.00309524
-0.000297061
0.171027
0.00301431
-0.00020568
0.15424
0.00289626
0.133071
-3.43217e-08
0.00274712
-1.37787e-06
7.74077e-05
0.0283584
-1.75629e-10
-1.98354e-06
8.49871e-05
0.0312962
-1.59236e-06
9.14738e-05
0.0337669
-8.78583e-07
9.65257e-05
0.0355541
-9.70028e-10
9.91949e-05
0.0364921
8.76662e-07
9.9195e-05
0.0364921
1.59049e-06
9.65261e-05
0.035554
1.98173e-06
9.14744e-05
0.0337669
1.3761e-06
8.49878e-05
0.0312962
7.74083e-05
0.0283584
-1.71622e-09
-1.61524e-06
0.000291524
0.0763011
-3.98239e-10
-2.42975e-06
0.000322025
0.0842322
-1.94522e-06
0.000348379
0.0908817
-1.03226e-06
0.000368366
0.0956797
-3.57981e-09
0.000379025
0.0981945
1.02521e-06
0.000379025
0.0981945
1.93849e-06
0.000368367
0.0956797
2.42344e-06
0.000348381
0.0908817
1.60936e-06
0.000322028
0.0842322
0.000291526
0.0763011
-5.41186e-09
8.60842e-07
0.00060054
0.113422
-6.56367e-10
1.13198e-06
0.000664383
0.125391
1.33847e-06
0.000719427
0.135387
9.36557e-07
0.00076056
0.142581
-6.58915e-09
0.000782494
0.146345
-9.49484e-07
0.000782495
0.146345
-1.3507e-06
0.000760562
0.14258
-1.14302e-06
0.00071943
0.135387
-8.70112e-07
0.000664387
0.125391
0.000600544
0.113422
-9.06221e-09
6.01604e-06
0.000945988
0.140456
-9.42565e-10
8.89629e-06
0.00104507
0.155599
8.62073e-06
0.00113017
0.168185
5.27837e-06
0.00119298
0.177217
-9.87767e-09
0.00122635
0.181936
-5.29772e-06
0.00122635
0.181936
-8.63891e-06
0.00119299
0.177217
-8.91271e-06
0.00113017
0.168185
-6.03033e-06
0.00104508
0.155599
0.000945995
0.140456
-1.2838e-08
1.41007e-05
0.00126443
0.158149
-1.25868e-09
2.09077e-05
0.00139236
0.175692
1.99017e-05
0.00150137
0.190194
1.20039e-05
0.00158086
0.200565
-1.3307e-08
0.00162286
0.205973
-1.20299e-05
0.00162287
0.205973
-1.9926e-05
0.00158087
0.200565
-2.09294e-05
0.00150137
0.190194
-1.41192e-05
0.00139237
0.175692
0.00126443
0.158149
-1.63622e-08
2.48781e-05
0.00150063
0.16726
-1.62327e-09
3.67965e-05
0.00164482
0.186518
3.48222e-05
0.00176624
0.202341
2.08944e-05
0.00185366
0.213614
-1.6741e-08
0.00189954
0.219479
-2.0927e-05
0.00189954
0.219479
-3.48525e-05
0.00185367
0.213614
-3.68233e-05
0.00176625
0.202341
-2.49006e-05
0.00164483
0.186518
0.00150064
0.16726
-1.9552e-08
3.79086e-05
0.00161644
0.168554
-2.07012e-09
5.5881e-05
0.00176136
0.188933
5.27077e-05
0.00188153
0.205567
3.15333e-05
0.00196685
0.217369
-2.0036e-08
0.00201127
0.223492
-3.15724e-05
0.00201128
0.223492
-5.27438e-05
0.00196685
0.217369
-5.59125e-05
0.00188154
0.205567
-3.79346e-05
0.00176137
0.188933
0.00161645
0.168554
-2.23155e-08
5.27105e-05
0.00159552
0.162801
-2.59903e-09
7.74264e-05
0.00172618
0.183803
7.27662e-05
0.00183259
0.200827
4.34082e-05
0.00190695
0.212844
-2.3014e-08
0.00194531
0.21906
-4.34529e-05
0.00194531
0.21906
-7.28074e-05
0.00190695
0.212844
-7.74621e-05
0.0018326
0.200827
-5.27393e-05
0.00172619
0.183803
0.00159553
0.162801
-2.45408e-08
6.92544e-05
0.00144376
0.150771
-3.26129e-09
0.000100853
0.0015492
0.17201
9.41744e-05
0.00163299
0.189089
5.59559e-05
0.0016905
0.201068
-2.54517e-08
0.00171987
0.207241
-5.60054e-05
0.00171987
0.207241
-9.42196e-05
0.0016905
0.201068
-0.000100892
0.001633
0.189089
-6.92853e-05
0.00154921
0.17201
0.00144377
0.150771
-2.61867e-08
8.53576e-05
0.13324
-3.92125e-09
0.00118889
0.000123913
0.15449
0.00126093
0.0001155
0.17135
0.0013182
6.84947e-05
0.183084
0.00135761
-2.70815e-08
0.189102
0.00137769
-6.85472e-05
0.189102
0.00137769
-0.000115547
0.183084
0.00135762
-0.000123954
0.17135
0.00131821
-8.53898e-05
0.15449
0.00126094
0.13324
-2.71386e-08
0.00118889
-3.97008e-07
2.01888e-05
0.0283386
-1.27899e-10
-6.10817e-07
2.23627e-05
0.0312741
-4.89675e-07
2.43473e-05
0.0337424
-2.71557e-07
2.59792e-05
0.0355279
-6.80899e-10
2.68591e-05
0.036465
2.70204e-07
2.68592e-05
0.036465
4.88361e-07
2.59794e-05
0.0355278
6.09529e-07
2.43476e-05
0.0337424
3.95747e-07
2.23632e-05
0.0312741
2.01892e-05
0.0283386
-1.22599e-09
-5.09702e-07
9.05282e-05
0.0762313
-2.9511e-10
-8.66135e-07
0.000100778
0.0841542
-7.21397e-07
0.000109898
0.090796
-3.94403e-07
0.000116994
0.0955883
-2.55517e-09
0.000120823
0.0981001
3.89366e-07
0.000120823
0.0981001
7.16592e-07
0.000116995
0.0955883
8.61593e-07
0.0001099
0.090796
5.05456e-07
0.000100779
0.0841541
9.05296e-05
0.0762313
-3.91901e-09
3.46402e-07
0.000201171
0.113311
-4.94684e-10
3.20342e-07
0.000224131
0.125268
3.53924e-07
0.000244292
0.135252
2.46236e-07
0.000259624
0.142438
-4.7406e-09
0.000267872
0.146199
-2.55542e-07
0.000267873
0.146199
-3.62739e-07
0.000259626
0.142438
-3.28313e-07
0.000244294
0.135252
-3.53084e-07
0.000224134
0.125268
0.000201175
0.113311
-6.6042e-09
2.25958e-06
0.000331781
0.140323
-7.25756e-10
3.18673e-06
0.000369016
0.155454
3.03267e-06
0.000401445
0.168028
1.84059e-06
0.000425725
0.177052
-7.14777e-09
0.00043872
0.181767
-1.8546e-06
0.000438721
0.181767
-3.04584e-06
0.000425728
0.177052
-3.19867e-06
0.000401449
0.168028
-2.26997e-06
0.00036902
0.155454
0.000331787
0.140323
-9.42321e-09
5.39071e-06
0.00045824
0.158017
-9.80499e-10
7.85326e-06
0.000507958
0.175551
7.41876e-06
0.000550833
0.190045
4.45687e-06
0.000582495
0.200411
-9.67276e-09
0.000599337
0.205817
-4.47579e-06
0.000599338
0.205817
-7.43646e-06
0.000582498
0.200411
-7.8691e-06
0.000550838
0.190045
-5.40426e-06
0.000507964
0.175551
0.000458247
0.158017
-1.20868e-08
9.69639e-06
0.000557847
0.167151
-1.26765e-09
1.42452e-05
0.00061545
0.186406
1.34383e-05
0.000664499
0.202228
8.04925e-06
0.000700224
0.213502
-1.22162e-08
0.000719091
0.219368
-8.0731e-06
0.000719092
0.219368
-1.34605e-05
0.000700228
0.213502
-1.42649e-05
0.000664505
0.202228
-9.71293e-06
0.000615457
0.186406
0.000557855
0.16715
-1.45284e-08
1.50351e-05
0.000613434
0.168483
-1.60845e-09
2.21268e-05
0.00067272
0.188868
2.08508e-05
0.00072241
0.205511
1.24668e-05
0.000758066
0.217319
-1.46738e-08
0.000776739
0.223447
-1.24954e-05
0.00077674
0.223447
-2.08772e-05
0.00075807
0.217319
-2.215e-05
0.000722416
0.205511
-1.50544e-05
0.000672728
0.188868
0.000613442
0.168483
-1.66803e-08
2.12236e-05
0.000616012
0.162777
-1.99982e-09
3.11895e-05
0.000670652
0.183795
2.9315e-05
0.000715575
0.200836
1.74874e-05
0.000747262
0.212867
-1.69178e-08
0.000763688
0.21909
-1.75203e-05
0.00076369
0.21909
-2.93453e-05
0.000747266
0.212867
-3.12159e-05
0.000715582
0.200836
-2.12451e-05
0.000670659
0.183795
0.00061602
0.162777
-1.84611e-08
2.8187e-05
0.000565722
0.150793
-2.46696e-09
4.10869e-05
0.00061079
0.172057