/*--------------------------------*- C++ -*----------------------------------*\
| =========                 |                                                 |
| \\      /  F ield         | OpenFOAM: The Open Source CFD Toolbox           |
|  \\    /   O peration     | Version:  2106                                  |
|   \\  /    A nd           | Website:  www.openfoam.com                      |
|    \\/     M anipulation  |                                                 |
\*---------------------------------------------------------------------------*/
FoamFile
{
    version     2.0;
    format      ascii;
    arch        "LSB;label=32;scalar=64";
    class       surfaceScalarField;
    location    "0.79";
    object      phi;
}
// * * * * * * * * * * * * * * * * * * * * * * * * * * * * * * * * * * * * * //

dimensions      [0 3 -1 0 0 0 0];

oriented        oriented;

internalField   nonuniform List<scalar> 
29100
(
0.00119021
0.15157
0.0815628
-3.70975e-10
0.0014646
0.156485
0.0896324
0.00125684
0.15993
0.0963734
0.000715777
0.162225
0.101198
-1.85266e-09
0.163377
0.103711
-0.000715781
0.163377
0.103711
-0.00125684
0.162225
0.101198
-0.0014646
0.15993
0.0963734
-0.00119022
0.156485
0.0896324
0.15157
0.0815628
-3.43686e-09
0.00238289
0.209861
0.156685
-6.95704e-10
0.00330991
0.21448
0.170316
0.00295216
0.217574
0.181461
0.00170779
0.219505
0.189343
-5.13899e-09
0.220451
0.193415
-0.0017078
0.220451
0.193415
-0.00295217
0.219505
0.189343
-0.00330992
0.217574
0.181461
-0.0023829
0.21448
0.170316
0.209861
0.156685
-9.00652e-09
0.0030397
0.221079
0.186137
-1.00303e-09
0.0042994
0.224025
0.201279
0.00385937
0.225945
0.213467
0.0022353
0.226992
0.22201
-8.27983e-09
0.227478
0.2264
-0.00223532
0.227478
0.2264
-0.00385938
0.226992
0.22201
-0.00429942
0.225945
0.213467
-0.00303971
0.224025
0.201279
0.221079
0.186137
-1.38955e-08
0.00347163
0.207748
0.19329
-1.26146e-09
0.00484351
0.209014
0.20857
0.00433868
0.209784
0.220715
0.00250844
0.210024
0.229167
-1.14889e-08
0.210095
0.233493
-0.00250846
0.210095
0.233493
-0.0043387
0.210024
0.229167
-0.00484353
0.209784
0.220715
-0.00347165
0.209014
0.20857
0.207748
0.19329
-1.8301e-08
0.00370252
0.182635
0.187878
-1.51271e-09
0.00509585
0.182607
0.20279
0.00455236
0.182505
0.214523
0.00262854
0.182172
0.22264
-1.49016e-08
0.181953
0.226781
-0.00262857
0.181953
0.226781
-0.00455239
0.182172
0.22264
-0.00509587
0.182505
0.214523
-0.00370254
0.182607
0.20279
0.182635
0.187878
-2.24325e-08
0.0037879
0.153075
0.175275
-1.7807e-09
0.00516198
0.15219
0.189666
0.00460189
0.151519
0.200898
0.00265564
0.150849
0.208628
-1.86292e-08
0.150469
0.212561
-0.00265568
0.150469
0.212561
-0.00460193
0.150849
0.208628
-0.00516201
0.151519
0.200898
-0.00378793
0.15219
0.189666
0.153075
0.175275
-2.63773e-08
0.00379578
0.123179
0.158639
-2.10265e-09
0.00513645
0.12181
0.172508
0.0045722
0.120824
0.183262
0.00263834
0.12001
0.190628
-2.27268e-08
0.11957
0.194367
-0.00263839
0.11957
0.194367
-0.00457225
0.12001
0.190628
-0.00513649
0.120824
0.183262
-0.00379581
0.12181
0.172508
0.123179
0.158639
-3.02205e-08
0.00376099
0.0951803
0.139813
-2.44123e-09
0.00508195
0.0935875
0.153217
0.00452354
0.0924832
0.163552
0.00261145
0.0916711
0.1706
-2.71828e-08
0.0912509
0.17417
-0.00261151
0.0912509
0.17417
-0.00452359
0.0916711
0.1706
-0.005082
0.0924832
0.163552
-0.00376103
0.0935875
0.153217
0.0951803
0.139813
-3.39112e-08
0.00372891
0.0702008
0.119862
-2.58229e-09
0.00506343
0.06855
0.132864
0.00450848
0.0675011
0.142841
0.00260196
0.066807
0.149616
-3.19058e-08
0.0664634
0.153039
-0.00260202
0.0664634
0.153039
-0.00450854
0.066807
0.149616
-0.00506348
0.0675011
0.142841
-0.00372895
0.0685499
0.132864
0.0702008
0.119862
-3.73204e-08
0.00395065
0.0993908
-2.66154e-09
0.0485065
0.00525431
0.112053
0.0472007
0.00462159
0.121718
0.0463713
0.00264715
0.128252
0.0458696
-3.659e-08
0.131546
0.0456236
-0.00264722
0.131546
0.0456236
-0.00462166
0.128252
0.0458696
-0.00525436
0.121718
0.0463713
-0.00395069
0.112053
0.0472007
0.0993908
-3.98405e-08
0.0485065
-0.000242265
0.0368155
0.0449896
-4.12445e-10
-0.000244326
0.0400148
0.0496197
-0.000171721
0.0427183
0.0535826
-8.55113e-05
0.0446515
0.0564607
-3.17748e-09
0.0456516
0.0579741
8.55049e-05
0.0456516
0.0579741
0.000171715
0.0446515
0.0564607
0.00024432
0.0427183
0.0535826
0.000242259
0.0400148
0.0496197
0.0368155
0.0449896
-5.53356e-09
6.54075e-05
0.0813259
0.11211
-8.48989e-10
0.000255262
0.0871612
0.12298
0.000304957
0.0920139
0.132116
0.000204254
0.0954141
0.138681
-9.62014e-09
0.0971606
0.142111
-0.000204273
0.0971606
0.142111
-0.000304976
0.0954141
0.138681
-0.00025528
0.0920139
0.132116
-6.54238e-05
0.0871612
0.12298
0.0813259
0.11211
-1.57525e-08
0.000619572
0.113071
0.153773
-1.28755e-09
0.00104117
0.119832
0.168186
0.00101868
0.125382
0.180121
0.000622559
0.129195
0.188625
-1.62025e-08
0.131139
0.193044
-0.000622591
0.131139
0.193044
-0.00101871
0.129195
0.188625
-0.0010412
0.125382
0.180121
-0.000619599
0.119832
0.168186
0.113071
0.153773
-2.52103e-08
0.00124366
0.129696
0.175421
-1.71469e-09
0.00189192
0.136138
0.191616
0.00178017
0.141358
0.204851
0.00106319
0.14487
0.214209
-2.30241e-08
0.146643
0.219052
-0.00106323
0.146643
0.219052
-0.00178022
0.14487
0.214209
-0.00189196
0.141358
0.204851
-0.0012437
0.136138
0.191616
0.129696
0.175421
-3.38468e-08
0.00185392
0.132951
0.182769
-2.18157e-09
0.00270034
0.138379
0.199703
0.00249562
0.142708
0.213378
0.00147421
0.145551
0.22298
-3.01601e-08
0.14697
0.227929
-0.00147427
0.14697
0.227929
-0.00249567
0.145551
0.22298
-0.0027004
0.142708
0.213378
-0.00185396
0.138379
0.199703
0.132951
0.182769
-4.17454e-08
0.00240602
0.125889
0.179931
-2.73044e-09
0.0034195
0.130029
0.197002
0.00312758
0.133254
0.210643
0.00183607
0.135312
0.220159
-3.76385e-08
0.136323
0.225044
-0.00183614
0.136323
0.225044
-0.00312765
0.135312
0.220159
-0.00341957
0.133254
0.210643
-0.00240608
0.130029
0.197002
0.125889
0.179931
-4.88941e-08
0.00287669
0.111759
0.169892
-3.47001e-09
0.00403288
0.114606
0.186774
0.00366747
0.116743
0.200138
0.00214574
0.118058
0.209404
-4.53741e-08
0.118692
0.214144
-0.00214583
0.118692
0.214144
-0.00366755
0.118058
0.209404
-0.00403296
0.116743
0.200138
-0.00287675
0.114606
0.186774
0.111759
0.169892
-5.5294e-08
0.00326006
0.0934981
0.154814
-4.38881e-09
0.00455023
0.0951824
0.17135
0.00412911
0.0963853
0.184331
0.0024121
0.0970966
0.193279
-5.3105e-08
0.0974331
0.197841
-0.0024122
0.0974331
0.197841
-0.00412921
0.0970966
0.193279
-0.00455031
0.0963853
0.184331
-0.00326013
0.0951824
0.17135
0.0934981
0.154814
-6.08363e-08
0.00359222
0.0735216
0.136246
-5.31853e-09
0.00502112
0.0742371
0.15238
0.0045506
0.0747502
0.164947
0.00265411
0.0750497
0.173559
-6.03609e-08
0.0751914
0.177935
-0.00265423
0.0751914
0.177935
-0.00455071
0.0750497
0.173559
-0.00502122
0.0747502
0.164947
-0.0035923
0.0742371
0.15238
0.0735216
0.136246
-6.54289e-08
0.00402145
0.11529
-6.13383e-09
0.0536012
0.00557085
0.131032
0.0537088
0.00500935
0.143185
0.0538447
0.00290546
0.151464
0.053942
-6.63122e-08
0.155655
0.0539873
-0.00290559
0.155655
0.0539873
-0.00500947
0.151464
0.053942
-0.00557095
0.143185
0.0538447
-0.00402153
0.131032
0.0537088
0.11529
-6.80768e-08
0.0536012
3.96103e-05
0.0100742
0.0348758
-4.1737e-10
3.55544e-05
0.0111161
0.0385076
2.996e-05
0.0120004
0.0415877
1.66037e-05
0.012657
0.043817
-3.52989e-09
0.0130029
0.0449878
-1.66107e-05
0.0130029
0.0449878
-2.99668e-05
0.012657
0.043817
-3.55608e-05
0.0120004
0.0415877
-3.96165e-05
0.0111161
0.0385076
0.0100742
0.0348758
-6.04953e-09
0.000283679
0.0305462
0.091354
-9.00361e-10
0.00038527
0.0332776
0.100717
0.000344346
0.0355633
0.108594
0.000200868
0.0372118
0.114269
-1.10509e-08
0.0380731
0.117241
-0.00020089
0.0380731
0.117241
-0.000344368
0.0372118
0.114269
-0.00038529
0.0355633
0.108594
-0.000283697
0.0332776
0.100717
0.0305462
0.091354
-1.75852e-08
0.000605849
0.0516211
0.132092
-1.42077e-09
0.000859687
0.0556555
0.145554
0.000778864
0.0589871
0.156778
0.000456521
0.0613366
0.164822
-1.89233e-08
0.0625537
0.16902
-0.000456559
0.0625537
0.16902
-0.0007789
0.0613366
0.164822
-0.000859721
0.0589871
0.156778
-0.000605879
0.0556555
0.145554
0.0516211
0.132092
-2.84359e-08
0.000976153
0.0675564
0.15851
-1.95747e-09
0.00140092
0.0721717
0.174675
0.00127955
0.0759368
0.188022
0.000751462
0.0785404
0.197533
-2.7131e-08
0.0798769
0.20248
-0.000751516
0.0798769
0.20248
-0.00127961
0.0785404
0.197533
-0.00140097
0.0759368
0.188022
-0.000976195
0.0721717
0.174675
0.0675564
0.15851
-3.84063e-08
0.00136928
0.0763405
0.172616
-2.57299e-09
0.00196134
0.0808723
0.19041
0.00179589
0.0845203
0.20496
0.00105496
0.0869947
0.215267
-3.56399e-08
0.0882523
0.220608
-0.00105503
0.0882523
0.220608
-0.00179595
0.0869948
0.215267
-0.0019614
0.0845203
0.20496
-0.00136933
0.0808723
0.19041
0.0763406
0.172616
-4.7439e-08
0.00176467
0.0779908
0.176516
-3.33126e-09
0.00251059
0.0819679
0.195161
0.00229778
0.0851147
0.210261
0.00134905
0.0872063
0.220896
-4.43583e-08
0.0882576
0.226388
-0.00134913
0.0882576
0.226388
-0.00229786
0.0872063
0.220896
-0.00251066
0.0851147
0.210261
-0.00176473
0.0819679
0.19516
0.0779908
0.176516
-5.54209e-08
0.00213882
0.0735882
0.172156
-4.36452e-09
0.00302425
0.076746
0.191111
0.00276514
0.0791869
0.206325
0.0016225
0.0807755
0.216977
-5.30681e-08
0.0815649
0.222459
-0.0016226
0.081565
0.222459
-0.00276524
0.0807755
0.216977
-0.00302434
0.0791869
0.206325
-0.00213889
0.076746
0.191111
0.0735882
0.172156
-6.22529e-08
0.00247551
0.0646974
0.161229
-5.62254e-09
0.0034922
0.0669379
0.180141
0.00319132
0.0686264
0.195192
0.00187167
0.0697056
0.205668
-6.13615e-08
0.070237
0.211041
-0.00187179
0.070237
0.211041
-0.00319143
0.0697056
0.205668
-0.00349229
0.0686264
0.195192
-0.00247559
0.066938
0.180141
0.0646974
0.161229
-6.77468e-08
0.00278735
0.0529932
0.145163
-6.87834e-09
0.00393042
0.0543514
0.163824
0.00358609
0.0553688
0.178549
0.00210024
0.0560167
0.188734
-6.86095e-08
0.0563353
0.193937
-0.00210038
0.0563353
0.193937
-0.00358621
0.0560167
0.188734
-0.00393053
0.0553688
0.178549
-0.00278744
0.0543514
0.163824
0.0529932
0.145163
-7.17896e-08
0.00313293
0.125136
-7.97929e-09
0.0400142
0.00438303
0.143462
0.0406711
0.00397636
0.157763
0.0411974
0.00231938
0.167586
0.0415509
-7.38405e-08
0.172585
0.0417255
-0.00231952
0.172585
0.0417255
-0.00397649
0.167586
0.0415509
-0.00438314
0.157763
0.0411974
-0.00313302
0.143462
0.0406711
0.125136
-7.32923e-08
0.0400142
-3.18685e-05
0.00411434
0.0307933
-4.06406e-10
-4.55066e-05
0.00453065
0.0339906
-3.66815e-05
0.00488393
0.036695
-2.02201e-05
0.0051466
0.038654
-3.27895e-09
0.00528421
0.0396834
2.02135e-05
0.00528421
0.0396834
3.66751e-05
0.0051466
0.038654
4.55005e-05
0.00488393
0.036695
3.18626e-05
0.00453066
0.0339906
0.00411434
0.0307933
-5.59087e-09
1.0261e-05
0.0127763
0.0826818
-9.36236e-10
1.7696e-05
0.0139999
0.09124
2.21367e-05
0.0150368
0.0984364
1.5774e-05
0.0157926
0.10363
-1.0457e-08
0.0161889
0.106352
-1.57947e-05
0.0161889
0.106352
-2.21567e-05
0.0157926
0.10363
-1.77144e-05
0.0150368
0.0984364
-1.02775e-05
0.0139999
0.09124
0.0127763
0.0826818
-1.63877e-08
0.000124856
0.0227433
0.122
-1.50894e-09
0.000189326
0.0247755
0.134714
0.000181801
0.0264862
0.145336
0.000110754
0.0277142
0.152972
-1.8119e-08
0.0283554
0.156965
-0.00011079
0.0283554
0.156965
-0.000181836
0.0277142
0.152972
-0.000189358
0.0264862
0.145336
-0.000124885
0.0247755
0.134714
0.0227433
0.122
-2.69262e-08
0.00029717
0.0315341
0.149422
-2.10848e-09
0.000443092
0.0341226
0.165182
0.000417697
0.0362805
0.178253
0.000250433
0.0378068
0.187608
-2.61704e-08
0.0385987
0.192487
-0.000250485
0.0385987
0.192487
-0.000417746
0.0378068
0.187608
-0.000443137
0.0362805
0.178253
-0.00029721
0.0341226
0.165182
0.0315341
0.149422
-3.65672e-08
0.000511419
0.0376123
0.166026
-2.80425e-09
0.000751726
0.0404128
0.183879
0.000703147
0.0427176
0.198571
0.000418851
0.0443231
0.209035
-3.44899e-08
0.0451498
0.214476
-0.000418919
0.0451498
0.214476
-0.000703211
0.0443231
0.209035
-0.000751784
0.0427177
0.198571
-0.00051147
0.0404129
0.183879
0.0376124
0.166026
-4.523e-08
0.000751405
0.0403198
0.173058
-3.65335e-09
0.00109093
0.043008
0.192226
0.00101494
0.0451828
0.207872
0.000602254
0.0466732
0.218958
-4.29088e-08
0.0474341
0.224706
-0.000602338
0.0474341
0.224706
-0.00101502
0.0466732
0.218958
-0.001091
0.0451828
0.207872
-0.000751465
0.043008
0.192226
0.0403199
0.173057
-5.27802e-08
0.000999668
0.0396748
0.171801
-4.76323e-09
0.00143878
0.0420031
0.191676
0.00133359
0.0438459
0.207767
0.000789354
0.0450875
0.219107
-5.11501e-08
0.0457156
0.224967
-0.000789454
0.0457156
0.224967
-0.00133368
0.0450875
0.219107
-0.00143886
0.0438459
0.207767
-0.000999736
0.0420031
0.191676
0.0396748
0.171801
-5.9089e-08
0.00124309
0.0361594
0.163501
-6.10173e-09
0.00178176
0.0379749
0.183631
0.00164724
0.0393784
0.199795
0.00097308
0.0403093
0.211121
-5.8773e-08
0.0407764
0.216953
-0.000973195
0.0407764
0.216953
-0.00164734
0.0403093
0.211121
-0.00178186
0.0393784
0.199794
-0.00124317
0.0379749
0.183631
0.0361594
0.163501
-6.39622e-08
0.00148588
0.0305234
0.149313
-7.49394e-09
0.0021223
0.0317736
0.169389
0.00195444
0.032725
0.18537
0.00115128
0.0333502
0.196496
-6.51476e-08
0.0336624
0.202202
-0.00115141
0.0336625
0.202202
-0.00195455
0.0333502
0.196496
-0.0021224
0.032725
0.18537
-0.00148596
0.0317736
0.169389
0.0305234
0.149313
-6.73056e-08
0.00174272
0.130287
-8.7066e-09
0.0236293
0.00247091
0.150156
0.0243517
0.00226249
0.165776
0.0249203
0.00132709
0.176569
0.0253031
-6.93641e-08
0.18208
0.0254944
-0.00132722
0.18208
0.0254944
-0.00226261
0.176569
0.0253031
-0.00247101
0.165776
0.0249203
-0.0017428
0.150155
0.0243517
0.130287
-6.80924e-08
0.0236293
2.12062e-06
0.00134571
0.0294455
-3.53594e-10
-2.78771e-07
0.00149425
0.0324987
1.24143e-07
0.00162344
0.0350711
1.4082e-07
0.00172206
0.0369319
-2.78289e-09
0.00177466
0.0379088
-1.46366e-07
0.00177466
0.0379088
-1.29548e-07
0.00172206
0.0369319
2.73592e-07
0.00162344
0.0350711
-2.12542e-06
0.00149425
0.0324987
0.00134571
0.0294455
-4.80923e-09
3.11174e-05
0.00482859
0.0791678
-8.57912e-10
4.02299e-05
0.00532946
0.0873957
3.70521e-05
0.0057598
0.0943032
2.19764e-05
0.0060795
0.0992875
-8.96942e-09
0.0062489
0.1019
-2.19941e-05
0.0062489
0.1019
-3.70693e-05
0.00607951
0.0992875
-4.02461e-05
0.0057598
0.0943032
-3.11324e-05
0.00532946
0.0873957
0.0048286
0.0791678
-1.4302e-08
8.68355e-05
0.00931636
0.117426
-1.4245e-09
0.000123079
0.0102259
0.129782
0.000113604
0.0110005
0.140105
6.74273e-05
0.0115656
0.147532
-1.56455e-08
0.0118634
0.151418
-6.74582e-05
0.0118634
0.151418
-0.000113633
0.0115656
0.147532
-0.000123107
0.0110005
0.140105
-8.68605e-05
0.0102259
0.129782
0.00931637
0.117426
-2.33653e-08
0.000169024
0.0136907
0.144879
-2.03687e-09
0.000245423
0.0149383
0.160393
0.000227932
0.0159907
0.173281
0.000135359
0.016747
0.182519
-2.26911e-08
0.0171431
0.187343
-0.000135404
0.0171431
0.187343
-0.000227975
0.016747
0.182519
-0.000245462
0.0159907
0.173281
-0.000169059
0.0149383
0.160393
0.0136907
0.144879
-3.1742e-08
0.000274694
0.0171111
0.162331
-2.7402e-09
0.00040037
0.0185509
0.180141
0.000372598
0.0197513
0.194838
0.000221218
0.0206016
0.205332
-2.99648e-08
0.0210438
0.210797
-0.000221276
0.0210438
0.210797
-0.000372654
0.0206016
0.205332
-0.00040042
0.0197513
0.194838
-0.000274738
0.0185509
0.180141
0.0171111
0.162331
-3.92977e-08
0.000398413
0.0190746
0.170696
-3.57784e-09
0.000578829
0.0205383
0.190058
0.000538488
0.0217406
0.205923
0.000319459
0.0225797
0.217199
-3.72857e-08
0.0230124
0.223057
-0.000319532
0.0230124
0.223057
-0.000538556
0.0225797
0.217199
-0.00057889
0.0217406
0.205923
-0.000398464
0.0205384
0.190058
0.0190746
0.170696
-4.58592e-08
0.000532626
0.0194046
0.170938
-4.63836e-09
0.000770456
0.0207407
0.191236
0.000715919
0.0218178
0.207744
0.000424298
0.022558
0.21942
-4.43805e-08
0.0229366
0.225467
-0.000424385
0.0229366
0.225467
-0.000715999
0.0225581
0.21942
-0.000770527
0.0218179
0.207744
-0.000532685
0.0207408
0.191236
0.0194046
0.170938
-5.12897e-08
0.000670531
0.0181966
0.164039
-5.88203e-09
0.000967067
0.0192936
0.184782
0.000897057
0.02016
0.201522
0.000530901
0.0207465
0.213298
-5.0843e-08
0.0210439
0.219376
-0.000531
0.0210439
0.219376
-0.000897148
0.0207465
0.213298
-0.000967146
0.02016
0.201522
-0.000670595
0.0192936
0.184781
0.0181966
0.164039
-5.54116e-08
0.000812102
0.015743
0.150955
-7.13983e-09
0.00116571
0.0165442
0.171784
0.00107703
0.0171648
0.188454
0.000635724
0.0175795
0.200104
-5.61224e-08
0.0177884
0.206093
-0.000635833
0.0177884
0.206093
-0.00107713
0.0175795
0.200104
-0.00116579
0.0171648
0.188454
-0.00081217
0.0165442
0.171784
0.015743
0.150955
-5.814e-08
0.000952003
0.132613
-8.19548e-09
0.0124648
0.00135857
0.153334
0.0129588
0.00125048
0.169702
0.013347
0.000735916
0.181053
0.0136102
-5.94623e-08
0.186861
0.0137428
-0.000736032
0.186861
0.0137428
-0.00125058
0.181053
0.0136103
-0.00135866
0.169702
0.013347
-0.000952073
0.153334
0.0129588
0.132613
-5.86088e-08
0.0124648
-5.61775e-06
0.000586749
0.0288644
-3.04014e-10
-8.37359e-06
0.000645484
0.031856
-6.6352e-06
0.00069518
0.0343742
-3.65704e-06
0.000732957
0.036196
-2.17414e-09
0.000752814
0.0371524
3.65248e-06
0.000752814
0.0371524
6.63087e-06
0.000732957
0.036196
8.36955e-06
0.000695181
0.0343742
5.61372e-06
0.000645485
0.031856
0.00058675
0.0288643
-3.90354e-09
-8.86109e-07
0.00204428
0.0777112
-7.55287e-10
-1.93954e-06
0.00225207
0.0857902
-6.58204e-07
0.00242915
0.0925679
1.55885e-07
0.00256078
0.0974589
-7.03319e-09
0.00263053
0.100023
-1.68759e-07
0.00263053
0.100023
6.44719e-07
0.00256079
0.0974589
1.92558e-06
0.00242915
0.0925679
8.74014e-07
0.00225208
0.0857902
0.00204429
0.0777111
-1.15658e-08
1.78275e-05
0.00397619
0.115476
-1.26155e-09
2.63693e-05
0.00437278
0.127652
2.58619e-05
0.00471078
0.137824
1.59807e-05
0.00495879
0.145144
-1.257e-08
0.00508985
0.148974
-1.60058e-05
0.00508986
0.148974
-2.58857e-05
0.00495879
0.145144
-2.63913e-05
0.00471078
0.137824
-1.78476e-05
0.00437278
0.127652
0.0039762
0.115476
-1.89376e-08
5.11875e-05
0.00595915
0.142844
-1.81464e-09
7.61926e-05
0.00653017
0.158211
7.25246e-05
0.00701427
0.170981
4.378e-05
0.00736516
0.180142
-1.83381e-08
0.00754974
0.184927
-4.38162e-05
0.00754975
0.184927
-7.25589e-05
0.00736516
0.180142
-7.6224e-05
0.00701428
0.170981
-5.12154e-05
0.00653018
0.158211
0.00595916
0.142844
-2.57912e-08
9.7955e-05
0.00761898
0.160573
-2.44784e-09
0.000145089
0.00830882
0.178315
0.000136997
0.00888819
0.192973
8.21199e-05
0.0093029
0.203449
-2.42559e-08
0.00951975
0.208909
-8.21675e-05
0.00951975
0.208909
-0.000137042
0.00930291
0.203449
-0.00014513
0.00888821
0.192973
-9.79903e-05
0.00830883
0.178315
0.00761899
0.160573
-3.19951e-08
0.000155973
0.0086885
0.16947
-3.19202e-09
0.000229415
0.00942053
0.188873
0.000215659
0.0100272
0.204798
0.00012881
0.0104556
0.216134
-3.01895e-08
0.010678
0.222027
-0.000128869
0.010678
0.222027
-0.000215714
0.0104556
0.216133
-0.000229464
0.0100272
0.204798
-0.000156015
0.00942054
0.188873
0.00868851
0.16947
-3.73965e-08
0.000221983
0.00903036
0.170375
-4.10185e-09
0.000324537
0.00972629
0.190828
0.000304106
0.0102932
0.207499
0.000181194
0.0106878
0.219311
-3.59088e-08
0.0108911
0.225435
-0.000181264
0.0108911
0.225435
-0.000304171
0.0106878
0.219311
-0.000324594
0.0102932
0.207499
-0.00022203
0.0097263
0.190828
0.00903038
0.170374
-4.18785e-08
0.000292928
0.00863464
0.164141
-5.13613e-09
0.000426476
0.00922945
0.185145
0.00039836
0.00970479
0.202139
0.000236771
0.0100308
0.214117
-4.1083e-08
0.0101973
0.220307
-0.000236851
0.0101973
0.220307
-0.000398433
0.0100308
0.214117
-0.00042654
0.0097048
0.202139
-0.00029298
0.00922947
0.185145
0.00863465
0.164141
-4.52937e-08
0.000368975
0.00759812
0.151622
-6.16637e-09
0.000533508
0.00805213
0.172797
0.000495579
0.00840748
0.18979
0.000293499
0.00864766
0.20169
-4.52802e-08
0.00876934
0.207815
-0.000293587
0.00876934
0.207815
-0.00049566
0.00864767
0.20169
-0.000533577
0.00840749
0.189789
-0.000369031
0.00805214
0.172797
0.00759813
0.151622
-4.75738e-08
0.000445257
0.133664
-7.0151e-09
0.00610192
0.000640018
0.154796
0.00639597
0.000592243
0.171529
0.00662814
0.00034967
0.183156
0.00678655
-4.79304e-08
0.189114
0.00686668
-0.000349763
0.189114
0.00686668
-0.000592327
0.183156
0.00678656
-0.00064009
0.171529
0.00662815
-0.000445314
0.154796
0.00639598
0.133664
-4.80764e-08
0.00610193
-8.51209e-07
0.000190658
0.0286745
-2.44873e-10
-1.6508e-06
0.000211183
0.0316456
-1.20215e-06
0.000229048
0.0341447
-6.42824e-07
0.000243072
0.0359523
-1.68644e-09
0.000250555
0.0369012
6.39437e-07
0.000250555
0.0369012
1.19887e-06
0.000243072
0.0359523
1.6476e-06
0.000229048
0.0341447
8.48105e-07
0.000211184
0.0316456
0.000190659
0.0286745
-2.95198e-09
1.84339e-06
0.000744479
0.0771555
-6.31014e-10
1.95608e-06
0.000824404
0.0851768
2.12038e-06
0.000893635
0.0919032
1.38837e-06
0.000946024
0.0967567
-5.48839e-09
0.000973991
0.0993006
-1.39927e-06
0.000973992
0.0993006
-2.13091e-06
0.000946026
0.0967566
-1.96587e-06
0.000893637
0.0919032
-1.85237e-06
0.000824407
0.0851768
0.000744481
0.0771555
-8.78881e-09
1.00021e-05
0.00153103
0.114679
-1.05696e-09
1.40346e-05
0.00169216
0.126781
1.33228e-05
0.00183106
0.136887
8.06913e-06
0.00193432
0.144161
-9.65279e-09
0.00198926
0.147967
-8.08821e-06
0.00198926
0.147967
-1.33411e-05
0.00193433
0.144161
-1.40517e-05
0.00183106
0.136887
-1.00175e-05
0.00169216
0.126781
0.00153103
0.114679
-1.45236e-08
2.42802e-05
0.00238137
0.14197
-1.51891e-09
3.5365e-05
0.0026234
0.157269
3.33062e-05
0.00283067
0.169983
1.99785e-05
0.00298269
0.179107
-1.40743e-08
0.00306318
0.183873
-2.00062e-05
0.00306318
0.183873
-3.33325e-05
0.00298269
0.179107
-3.53892e-05
0.00283067
0.169983
-2.43017e-05
0.00262341
0.157269
0.00238138
0.14197
-1.99002e-08
4.47481e-05
0.00313401
0.159776
-2.03822e-09
6.57058e-05
0.00343722
0.177481
6.17856e-05
0.00369447
0.192113
3.69475e-05
0.00388076
0.202575
-1.86386e-08
0.0039788
0.20803
-3.69841e-05
0.00397881
0.20803
-6.18201e-05
0.00388077
0.202575
-6.5737e-05
0.00369448
0.192113
-4.47753e-05
0.00343723
0.177481
0.00313402
0.159776
-2.47985e-08
7.08406e-05
0.00366121
0.168872
-2.63464e-09
0.000103976
0.00399353
0.188283
9.76469e-05
0.00427193
0.204227
5.82899e-05
0.00447088
0.215583
-2.32117e-08
0.00457485
0.22149
-5.83353e-05
0.00457486
0.22149
-9.76895e-05
0.00447088
0.215583
-0.000104014
0.00427194
0.204227
-7.0873e-05
0.00399354
0.188283
0.00366122
0.168872
-2.9097e-08
0.00010136
0.00388492
0.170049
-3.34471e-09
0.000148376
0.00421028
0.190564
0.000139127
0.00447849
0.207302
8.29242e-05
0.00466745
0.219171
-2.76129e-08
0.00476542
0.225328
-8.29781e-05
0.00476543
0.225328
-0.000139178
0.00466746
0.219171
-0.00014842
0.0044785
0.207301
-0.000101397
0.00421029
0.190564
0.00388493
0.170049
-3.2705e-08
0.000135013
0.00378225
0.164109
-4.13834e-09
0.000197056
0.0040683
0.185225
0.000184307
0.00429973
0.20233
0.000109627
0.00446027
0.214399
-3.15954e-08
0.00454275
0.220639
-0.000109689
0.00454275
0.220639
-0.000184364
0.00446027
0.214399
-0.000197106
0.00429974
0.20233
-0.000135053
0.00406831
0.185225
0.00378226
0.164109
-3.55062e-08
0.000171538
0.00338162
0.151851
-4.91896e-09
0.00024859
0.00360654
0.173182
0.000231278
0.00378419
0.190322
0.000137111
0.00390534
0.202339
-3.48471e-08
0.00396701
0.208528
-0.000137179
0.00396701
0.208528
-0.00023134
0.00390535
0.202339
-0.000248644
0.0037842
0.190322
-0.000171581
0.00360655
0.173182
0.00338163
0.151851
-3.74389e-08
0.0002064
0.134082
-5.54065e-09
0.00275725
0.000298103
0.155404
0.00290683
0.000276807
0.172309
0.00302523
0.000163786
0.184068
0.00310639
-3.6976e-08
0.190097
0.00314761
-0.000163857
0.190097
0.00314762
-0.000276873
0.184068
0.0031064
-0.000298159
0.172309
0.00302523
-0.000206444
0.155404
0.00290683
0.134082
-3.80652e-08
0.00275725
-1.38778e-06
7.74971e-05
0.0285984
-1.78775e-10
-1.9979e-06
8.50819e-05
0.0315611
-1.60503e-06
9.15753e-05
0.0340527
-8.86017e-07
9.6633e-05
0.035855
-1.23727e-09
9.93054e-05
0.036801
8.83552e-07
9.93055e-05
0.036801
1.60263e-06
9.66333e-05
0.035855
1.9956e-06
9.15757e-05
0.0340527
1.38555e-06
8.50825e-05
0.0315611
7.74976e-05
0.0285984
-2.1279e-09
-1.63824e-06
0.000291941
0.0769427
-4.81685e-10
-2.46442e-06
0.00032248
0.0849403
-1.97696e-06
0.000348874
0.0916454
-1.05109e-06
0.000368894
0.0964835
-4.03413e-09
0.000379571
0.0990193
1.0431e-06
0.000379571
0.0990193
1.96924e-06
0.000368895
0.0964835
2.4571e-06
0.000348876
0.0916454
1.63133e-06
0.000322483
0.0849403
0.000291942
0.0769427
-6.41463e-09
8.35179e-07
0.000601505
0.114369
-8.09753e-10
1.08874e-06
0.00066545
0.126437
1.29721e-06
0.000720588
0.136515
9.11905e-07
0.000761794
0.143768
-7.10289e-09
0.000783769
0.147564
-9.25924e-07
0.00078377
0.147564
-1.31065e-06
0.000761796
0.143768
-1.10105e-06
0.000720591
0.136515
-8.4573e-07
0.000665453
0.126437
0.000601509
0.114369
-1.05228e-08
5.99001e-06
0.000947622
0.141618
-1.17947e-09
8.85435e-06
0.00104687
0.156884
8.58079e-06
0.00113212
0.169572
5.25437e-06
0.00119505
0.178677
-1.03735e-08
0.00122848
0.183433
-5.27479e-06
0.00122848
0.183433
-8.60022e-06
0.00119505
0.178677
-8.87218e-06
0.00113212
0.169572
-6.00589e-06
0.00104688
0.156884
0.000947628
0.141618
-1.46579e-08
1.40845e-05
0.0012667
0.159443
-1.58256e-09
2.08799e-05
0.00139485
0.177126
1.98746e-05
0.00150405
0.191742
1.19874e-05
0.00158368
0.202195
-1.37557e-08
0.00162576
0.207645
-1.20144e-05
0.00162576
0.207645
-1.99001e-05
0.00158369
0.202195
-2.0903e-05
0.00150405
0.191742
-1.41047e-05
0.00139485
0.177126
0.0012667
0.159443
-1.8422e-08
2.48792e-05
0.00150337
0.168611
-2.03218e-09
3.67941e-05
0.0016478
0.188019
3.48188e-05
0.00176942
0.203963
2.0892e-05
0.00185699
0.215323
-1.71458e-08
0.00190295
0.221233
-2.09256e-05
0.00190296
0.221233
-3.48503e-05
0.001857
0.215323
-3.68223e-05
0.00176943
0.203963
-2.49034e-05
0.0016478
0.188018
0.00150338
0.16861
-2.1742e-08
3.79336e-05
0.0016194
0.169895
-2.54884e-09
5.59143e-05
0.00176455
0.190429
5.2738e-05
0.00188491
0.207189
3.15511e-05
0.00197036
0.219078
-2.04118e-08
0.00201486
0.225247
-3.1591e-05
0.00201486
0.225247
-5.27751e-05
0.00197037
0.219078
-5.59471e-05
0.00188492
0.207189
-3.79612e-05
0.00176455
0.190429
0.00161941
0.169895
-2.45733e-08
5.27649e-05
0.00159841
0.164077
-3.10797e-09
7.75045e-05
0.00172927
0.185235
7.28391e-05
0.00183583
0.202384
4.34514e-05
0.0019103
0.214488
-2.33799e-08
0.00194872
0.220749
-4.3497e-05
0.00194872
0.220749
-7.28812e-05
0.00191031
0.214488
-7.75414e-05
0.00183584
0.202384
-5.27955e-05
0.00172928
0.185235
0.00159842
0.164077
-2.68354e-08
6.93445e-05
0.00144633
0.151934
-3.64653e-09
0.000100986
0.00155192
0.173328
9.42987e-05
0.00163583
0.190529
5.60298e-05
0.00169341
0.202594
-2.58359e-08
0.00172282
0.20881
-5.60801e-05
0.00172282
0.20881
-9.43449e-05
0.00169342
0.202594
-0.000101026
0.00163583
0.190529
-6.93771e-05
0.00155193
0.173327
0.00144634
0.151934
-2.84809e-08
8.5494e-05
0.134252
-4.07296e-09
0.00119096
0.000124111
0.155654
0.0012631
0.000115684
0.172633
0.00132045
6.86036e-05
0.184449
0.00135991
-2.75222e-08
0.190508
0.00138001
-6.8657e-05
0.190508
0.00138001
-0.000115733
0.184449
0.00135991
-0.000124154
0.172633
0.00132045
-8.55278e-05
0.155654
0.00126311
0.134252
-2.92335e-08
0.00119096
-3.99872e-07
2.00798e-05
0.0285788
-1.25537e-10
-6.15277e-07
2.22424e-05
0.0315391
-4.93953e-07
2.4219e-05
0.0340284
-2.74212e-07
2.58455e-05
0.0358289
-8.75095e-10
2.67227e-05
0.036774
2.72471e-07
2.67227e-05
0.036774
4.92263e-07
2.58457e-05
0.0358289
6.13655e-07
2.42193e-05
0.0340284
3.98318e-07
2.22428e-05
0.0315391
2.00801e-05
0.0285787
-1.46855e-09
-5.19618e-07
9.02339e-05
0.0768731
-3.47772e-10
-8.81642e-07
0.000100454
0.0848624
-7.36301e-07
0.000109554
0.0915599
-4.03535e-07
0.000116637
0.0963923
-2.85913e-09
0.000120458
0.0989251
3.97876e-07
0.000120458
0.0989251
7.30849e-07
0.000116637
0.0963923
8.7648e-07
0.000109555
0.0915599
5.14742e-07
0.000100455
0.0848624
9.0235e-05
0.076873
-4.47876e-09
3.31073e-07
0.000200696
0.114258
-5.86221e-10
2.94143e-07
0.000223613
0.126314
3.28103e-07
0.000243742
0.136381
2.30486e-07
0.000259053
0.143626
-5.04703e-09
0.000267291
0.147417
-2.40441e-07
0.000267291
0.147417
-3.37637e-07
0.000259055
0.143626
-3.02842e-07
0.000243744
0.136381
-3.38494e-07
0.000223615
0.126314
0.000200699
0.114258
-7.39908e-09
2.23637e-06
0.00033117
0.141485
-8.55994e-10
3.14955e-06
0.00036835
0.156739
2.99663e-06
0.00040074
0.169415
1.81866e-06
0.000424994
0.178512
-7.38523e-09
0.000437975
0.183264
-1.8332e-06
0.000437976
0.183264
-3.01045e-06
0.000424996
0.178512
-3.16224e-06
0.000400743
0.169415
-2.24764e-06
0.000368354
0.156739
0.000331174
0.141485
-1.03911e-08
5.36153e-06
0.000457544
0.159311
-1.14617e-09
7.80704e-06
0.000507202
0.176985
7.37403e-06
0.000550031
0.191593
4.42976e-06
0.000581664
0.202041
-9.80838e-09
0.00059849
0.207489
-4.44902e-06
0.000598491
0.207489
-7.39223e-06
0.000581666
0.202041
-7.82355e-06
0.000550035
0.191593
-5.37596e-06
0.000507207
0.176984
0.00045755
0.159311
-1.3158e-08
9.66229e-06
0.000557118
0.168501
-1.46291e-09
1.4192e-05
0.000614657
0.187907
1.3387e-05
0.000663658
0.203851
8.01829e-06
0.000699351
0.215211
-1.22403e-08
0.000718202
0.221122
-8.04227e-06
0.000718203
0.221122
-1.34095e-05
0.000699354
0.215211
-1.42122e-05
0.000663663
0.20385
-9.67964e-06
0.000614663
0.187906
0.000557124
0.168501
-1.56401e-08
1.49974e-05
0.000612717
0.169825
-1.81766e-09
2.2069e-05
0.000671941
0.190365
2.07955e-05
0.000721582
0.207133
1.24337e-05
0.000757205
0.219029
-1.45902e-08
0.000775862
0.225202
-1.24622e-05
0.000775863
0.225202
-2.08221e-05
0.000757208
0.219029
-2.20926e-05
0.000721587
0.207132
-1.50174e-05
0.000671946
0.190365
0.000612723
0.169825
-1.7805e-08
2.11838e-05
0.000615345
0.164054
-2.19607e-09
3.113e-05
0.000669928
0.185227
2.92589e-05
0.000714807
0.202393
1.74539e-05
0.000746463
0.214511
-1.67424e-08
0.000762874
0.22078
-1.74866e-05
0.000762875
0.22078
-2.92892e-05
0.000746466
0.214511
-3.11567e-05
0.000714812
0.202393
-2.1206e-05
0.000669933
0.185227
0.00061535
0.164053
-1.95935e-08
2.81465e-05
0.000565139
0.151956
-2.55626e-09
4.10289e-05
0.000610161
0.173374
3.83401e-05
0.000646144
0.1906