/*--------------------------------*- C++ -*----------------------------------*\
| =========                 |                                                 |
| \\      /  F ield         | OpenFOAM: The Open Source CFD Toolbox           |
|  \\    /   O peration     | Version:  2106                                  |
|   \\  /    A nd           | Website:  www.openfoam.com                      |
|    \\/     M anipulation  |                                                 |
\*---------------------------------------------------------------------------*/
FoamFile
{
    version     2.0;
    format      ascii;
    arch        "LSB;label=32;scalar=64";
    class       surfaceScalarField;
    location    "0.6";
    object      phi;
}
// * * * * * * * * * * * * * * * * * * * * * * * * * * * * * * * * * * * * * //

dimensions      [0 3 -1 0 0 0 0];

oriented        oriented;

internalField   nonuniform List<scalar> 
29100
(
0.00118956
0.151474
0.0815313
-3.39919e-10
0.00146383
0.156385
0.0895979
0.00125617
0.159827
0.0963364
0.000715397
0.16212
0.10116
-2.20541e-09
0.16327
0.103671
-0.000715401
0.16327
0.103671
-0.00125618
0.16212
0.10116
-0.00146383
0.159827
0.0963364
-0.00118957
0.156385
0.0895979
0.151474
0.0815313
-5.09919e-09
0.00238133
0.209702
0.156631
-6.69727e-10
0.00330775
0.214314
0.170257
0.00295021
0.217402
0.181398
0.00170665
0.219329
0.189277
-6.30836e-09
0.220274
0.193349
-0.00170667
0.220274
0.193349
-0.00295022
0.219329
0.189277
-0.00330776
0.217402
0.181398
-0.00238134
0.214314
0.170257
0.209702
0.156631
-1.33213e-08
0.00303727
0.220874
0.186075
-9.86386e-10
0.00429593
0.223811
0.201212
0.00385619
0.225723
0.213396
0.00223343
0.226765
0.221936
-1.02139e-08
0.227248
0.226325
-0.00223345
0.227248
0.226325
-0.00385621
0.226765
0.221936
-0.00429595
0.225723
0.213396
-0.00303729
0.223811
0.201212
0.220874
0.186075
-2.0322e-08
0.0034682
0.207511
0.193225
-1.27299e-09
0.00483859
0.208765
0.208499
0.00433415
0.209525
0.220639
0.00250577
0.209758
0.229088
-1.42586e-08
0.209825
0.233412
-0.00250579
0.209825
0.233412
-0.00433418
0.209758
0.229088
-0.00483861
0.209525
0.220639
-0.00346823
0.208765
0.208499
0.207511
0.193225
-2.65359e-08
0.00369797
0.182379
0.18781
-1.58255e-09
0.00508931
0.182338
0.202715
0.00454632
0.182224
0.214442
0.00262497
0.181882
0.222555
-1.86894e-08
0.18166
0.226694
-0.00262501
0.18166
0.226694
-0.00454635
0.181882
0.222555
-0.00508934
0.182224
0.214442
-0.003698
0.182338
0.202715
0.182379
0.18781
-3.22729e-08
0.00378211
0.152814
0.175204
-1.92986e-09
0.00515365
0.151915
0.189586
0.00459417
0.151232
0.20081
0.00265107
0.150554
0.208535
-2.36939e-08
0.150168
0.212465
-0.00265111
0.150168
0.212465
-0.00459421
0.150554
0.208535
-0.00515369
0.151232
0.20081
-0.00378215
0.151915
0.189586
0.152814
0.175204
-3.76914e-08
0.00378864
0.122928
0.158564
-2.3617e-09
0.00512619
0.121545
0.172422
0.00456268
0.120547
0.183167
0.0026327
0.119725
0.190526
-2.94083e-08
0.119281
0.194262
-0.00263276
0.119281
0.194262
-0.00456273
0.119725
0.190526
-0.00512624
0.120547
0.183167
-0.00378869
0.121545
0.172422
0.122928
0.158564
-4.28896e-08
0.00375242
0.0949512
0.139736
-2.8778e-09
0.00506964
0.0933465
0.153127
0.00451213
0.0922326
0.163451
0.0026047
0.0914139
0.170491
-3.58152e-08
0.0909904
0.174057
-0.00260477
0.0909904
0.174057
-0.00451219
0.0914139
0.170491
-0.0050697
0.0922326
0.163451
-0.00375248
0.0933465
0.153127
0.0949511
0.139736
-4.77778e-08
0.00371879
0.0700054
0.119784
-3.29026e-09
0.00504898
0.0683456
0.132772
0.00449516
0.0672895
0.142737
0.0025941
0.0665904
0.149502
-4.26926e-08
0.0662444
0.152921
-0.00259418
0.0662444
0.152921
-0.00449524
0.0665904
0.149502
-0.00504905
0.0672894
0.142737
-0.00371885
0.0683456
0.132772
0.0700053
0.119784
-5.23752e-08
0.00393887
0.099316
-3.58252e-09
0.0483528
0.00523778
0.111962
0.0470412
0.00460645
0.121614
0.0462071
0.00263825
0.128139
0.0457022
-4.94304e-08
0.131428
0.0454546
-0.00263835
0.131428
0.0454546
-0.00460654
0.128139
0.0457022
-0.00523786
0.121614
0.0462071
-0.00393894
0.111962
0.0470411
0.099316
-5.56334e-08
0.0483528
-0.000242165
0.0367712
0.0450023
-4.59594e-10
-0.000244225
0.0399662
0.0496338
-0.00017168
0.0426661
0.0535978
-8.55012e-05
0.0445967
0.0564767
-3.72483e-09
0.0455955
0.0579905
8.54938e-05
0.0455955
0.0579905
0.000171673
0.0445967
0.0564767
0.000244217
0.0426661
0.0535978
0.000242157
0.0399662
0.0496338
0.0367712
0.0450023
-8.02579e-09
6.47429e-05
0.0811981
0.112139
-9.62017e-10
0.000254183
0.0870216
0.123012
0.000303888
0.0918645
0.13215
0.000203595
0.0952575
0.138717
-1.14859e-08
0.0970003
0.142147
-0.000203618
0.0970003
0.142147
-0.000303911
0.0952575
0.138717
-0.000254207
0.0918645
0.13215
-6.47655e-05
0.0870216
0.123012
0.0811981
0.112139
-2.23854e-08
0.000617509
0.112849
0.153806
-1.45319e-09
0.00103801
0.119591
0.168222
0.00101568
0.125125
0.180158
0.000620746
0.128926
0.188663
-1.9407e-08
0.130863
0.193083
-0.000620785
0.130863
0.193083
-0.00101571
0.128926
0.188663
-0.00103805
0.125125
0.180158
-0.000617546
0.119591
0.168222
0.112849
0.153806
-3.54689e-08
0.00123968
0.129389
0.175446
-1.98176e-09
0.00188592
0.135804
0.19164
0.00177452
0.141002
0.204873
0.0010598
0.144498
0.21423
-2.77128e-08
0.146264
0.219072
-0.00105985
0.146264
0.219072
-0.00177457
0.144498
0.21423
-0.00188597
0.141002
0.204873
-0.00123972
0.135804
0.19164
0.129389
0.175446
-4.71481e-08
0.00184756
0.132577
0.182774
-2.58522e-09
0.00269089
0.137974
0.199701
0.00248674
0.142278
0.213371
0.00146891
0.145104
0.222968
-3.65644e-08
0.146513
0.227914
-0.00146898
0.146513
0.227914
-0.00248681
0.145104
0.222968
-0.00269096
0.142278
0.21337
-0.00184762
0.137974
0.199701
0.132577
0.182774
-5.75582e-08
0.00239694
0.125477
0.179908
-3.35019e-09
0.00340612
0.129585
0.196966
0.00311504
0.132784
0.210595
0.0018286
0.134823
0.220102
-4.60852e-08
0.135825
0.224982
-0.00182869
0.135825
0.224982
-0.00311512
0.134823
0.220102
-0.0034062
0.132784
0.210595
-0.00239701
0.129585
0.196966
0.125477
0.179908
-6.67597e-08
0.00286464
0.11134
0.169836
-4.4484e-09
0.00401526
0.114157
0.1867
0.003651
0.116269
0.200046
0.00213595
0.117567
0.209298
-5.62408e-08
0.118192
0.21403
-0.00213606
0.118192
0.21403
-0.00365111
0.117567
0.209298
-0.00401536
0.116269
0.200046
-0.00286472
0.114157
0.1867
0.11134
0.169836
-7.47897e-08
0.00324492
0.0931028
0.154728
-5.88019e-09
0.00452823
0.094761
0.171239
0.00410864
0.0959432
0.184197
0.00239995
0.0966403
0.193127
-6.66696e-08
0.0969696
0.197679
-0.00240008
0.0969696
0.197679
-0.00410876
0.0966403
0.193127
-0.00452834
0.0959432
0.184197
-0.00324501
0.094761
0.171239
0.0931028
0.154728
-8.15155e-08
0.00357389
0.0731762
0.136137
-7.42494e-09
0.00499476
0.0738717
0.15224
0.00452621
0.0743691
0.16478
0.00263969
0.0746581
0.173371
-7.6679e-08
0.0747945
0.177735
-0.00263984
0.0747945
0.177735
-0.00452635
0.0746581
0.173371
-0.00499488
0.0743691
0.16478
-0.00357399
0.0738717
0.15224
0.0731762
0.136137
-8.71532e-08
0.00400034
0.115167
-8.74652e-09
0.0533245
0.00554063
0.130874
0.0534191
0.00498146
0.142998
0.0535448
0.002889
0.151254
0.0536352
-8.46628e-08
0.155434
0.0536769
-0.00288916
0.155434
0.0536769
-0.00498161
0.151254
0.0536351
-0.00554076
0.142998
0.0535448
-0.00400045
0.130874
0.0534191
0.115167
-8.96388e-08
0.0533245
3.96248e-05
0.010042
0.0349207
-4.79864e-10
3.55705e-05
0.0110806
0.0385573
2.99391e-05
0.0119621
0.0416413
1.6582e-05
0.0126166
0.0438734
-3.97046e-09
0.0129615
0.0450456
-1.65899e-05
0.0129615
0.0450456
-2.99471e-05
0.0126166
0.0438734
-3.55786e-05
0.0119621
0.0416413
-3.96332e-05
0.0110806
0.0385573
0.010042
0.0349207
-8.48433e-09
0.000282992
0.0304386
0.0914594
-1.09341e-09
0.00038422
0.0331592
0.100832
0.000343316
0.0354359
0.108717
0.000200236
0.0370778
0.114399
-1.26967e-08
0.0379356
0.117373
-0.000200261
0.0379356
0.117373
-0.000343341
0.0370778
0.114399
-0.000384245
0.0354359
0.108717
-0.000283016
0.0331592
0.100832
0.0304386
0.0914594
-2.42578e-08
0.000603841
0.0514189
0.132222
-1.72313e-09
0.000856638
0.0554335
0.145695
0.00077596
0.0587487
0.156926
0.000454769
0.0610863
0.164975
-2.18382e-08
0.0622971
0.169176
-0.000454813
0.0622971
0.169176
-0.000776003
0.0610863
0.164975
-0.00085668
0.0587487
0.156926
-0.000603881
0.0554335
0.145695
0.0514189
0.132222
-3.86959e-08
0.000972236
0.0672606
0.158632
-2.39929e-09
0.00139501
0.071848
0.174803
0.00127396
0.07559
0.188153
0.000748106
0.078177
0.197665
-3.14869e-08
0.0795048
0.202612
-0.000748168
0.0795048
0.202612
-0.00127402
0.078177
0.197665
-0.00139507
0.07559
0.188153
-0.000972291
0.071848
0.174803
0.0672606
0.158632
-5.16256e-08
0.00136292
0.0759681
0.172704
-3.17277e-09
0.00195182
0.0804663
0.190494
0.00178691
0.0840866
0.205039
0.00104959
0.0865413
0.215341
-4.16392e-08
0.0877886
0.220679
-0.00104967
0.0877886
0.220679
-0.00178699
0.0865414
0.215341
-0.0019519
0.0840866
0.205039
-0.00136298
0.0804663
0.190494
0.0759682
0.172704
-6.29867e-08
0.0017554
0.0775694
0.176551
-4.13838e-09
0.00249688
0.0815107
0.19518
0.00228489
0.0846282
0.210266
0.00134134
0.0866991
0.220887
-5.22513e-08
0.0877398
0.226372
-0.00134145
0.0877398
0.226372
-0.00228499
0.0866991
0.220887
-0.00249697
0.0846282
0.210266
-0.00175548
0.0815107
0.19518
0.0775695
0.176551
-7.26617e-08
0.00212635
0.0731514
0.172128
-5.47663e-09
0.00300594
0.0762747
0.191056
0.00274799
0.0786877
0.206244
0.00161228
0.0802569
0.216876
-6.30858e-08
0.0810364
0.222346
-0.0016124
0.0810364
0.222346
-0.0027481
0.0802569
0.216876
-0.00300605
0.0786877
0.206244
-0.00212644
0.0762747
0.191056
0.0731514
0.172128
-8.05348e-08
0.00245966
0.0642792
0.161141
-7.19803e-09
0.00346909
0.0664898
0.180015
0.00316976
0.0681544
0.19503
0.00185886
0.0692172
0.205478
-7.35341e-08
0.0697403
0.210834
-0.00185901
0.0697403
0.210834
-0.00316989
0.0692172
0.205478
-0.00346921
0.0681544
0.19503
-0.00245976
0.0664898
0.180014
0.0642792
0.161141
-8.63157e-08
0.00276798
0.0526238
0.145024
-9.11481e-09
0.00390249
0.0539586
0.163637
0.0035602
0.0549579
0.178319
0.00208492
0.0555934
0.18847
-8.26643e-08
0.0559058
0.193655
-0.00208508
0.0559058
0.193655
-0.00356035
0.0555934
0.18847
-0.00390262
0.0549579
0.178318
-0.00276808
0.0539586
0.163637
0.0526238
0.145024
-9.02018e-08
0.00311055
0.124965
-1.0585e-08
0.0397157
0.00435083
0.143235
0.0403574
0.00394655
0.157488
0.0408716
0.00230176
0.167276
0.0412168
-8.87335e-08
0.172255
0.0413874
-0.00230193
0.172255
0.0413874
-0.00394671
0.167276
0.0412169
-0.00435096
0.157488
0.0408716
-0.00311065
0.143235
0.0403574
0.124965
-8.98041e-08
0.0397157
-3.18473e-05
0.00409064
0.0308619
-4.35115e-10
-4.54802e-05
0.00450448
0.0340664
-3.66934e-05
0.00485572
0.0367768
-2.02368e-05
0.00511686
0.0387401
-3.57118e-09
0.00525366
0.0397717
2.02297e-05
0.00525366
0.0397717
3.66861e-05
0.00511686
0.0387401
4.54726e-05
0.00485572
0.0367768
3.18396e-05
0.00450448
0.0340664
0.00409064
0.0308619
-7.59361e-09
9.78783e-06
0.0126939
0.0828463
-1.03851e-09
1.69478e-05
0.013909
0.0914203
2.13655e-05
0.0149388
0.0986295
1.52943e-05
0.0156894
0.103832
-1.16241e-08
0.0160829
0.106559
-1.53175e-05
0.0160829
0.106559
-2.13885e-05
0.0156894
0.103832
-1.697e-05
0.0149388
0.0986295
-9.80884e-06
0.0139091
0.0914203
0.0126939
0.0828463
-2.17673e-08
0.000123313
0.022584
0.122209
-1.72414e-09
0.000186961
0.0246
0.13494
0.000179527
0.0262972
0.145575
0.000109373
0.0275153
0.15322
-2.02059e-08
0.0281512
0.157217
-0.000109413
0.0281512
0.157217
-0.000179567
0.0275153
0.15322
-0.000186999
0.0262972
0.145575
-0.00012335
0.0246
0.13494
0.022584
0.122209
-3.53246e-08
0.000294047
0.0312955
0.149627
-2.4807e-09
0.00043835
0.0338605
0.165398
0.000413182
0.0359987
0.178477
0.000247714
0.0375108
0.187835
-2.92812e-08
0.0382953
0.192716
-0.000247772
0.0382953
0.192716
-0.000413238
0.0375108
0.187835
-0.000438404
0.0359987
0.178477
-0.000294097
0.0338605
0.165398
0.0312955
0.149627
-4.7347e-08
0.000506208
0.0373062
0.166187
-3.34881e-09
0.000743898
0.0400776
0.184039
0.000695732
0.0423583
0.198727
0.000414402
0.0439465
0.209186
-3.87547e-08
0.0447642
0.214625
-0.000414478
0.0447642
0.214625
-0.000695805
0.0439465
0.209186
-0.000743966
0.0423583
0.198727
-0.00050627
0.0400777
0.184039
0.0373062
0.166187
-5.77634e-08
0.00074367
0.039968
0.173146
-4.42285e-09
0.00107943
0.0426245
0.192298
0.00100409
0.0447734
0.207926
0.000595764
0.0462454
0.218997
-4.8471e-08
0.0469967
0.224736
-0.000595859
0.0469967
0.224736
-0.00100418
0.0462454
0.218997
-0.00107952
0.0447734
0.207926
-0.000743743
0.0426246
0.192298
0.039968
0.173145
-6.64312e-08
0.000989096
0.0393052
0.171802
-5.86369e-09
0.0014232
0.0416027
0.191644
0.00131895
0.0434204
0.207702
0.000780621
0.0446444
0.219015
-5.81025e-08
0.0452635
0.22486
-0.000780734
0.0452635
0.22486
-0.00131906
0.0446445
0.219015
-0.00142329
0.0434204
0.207701
-0.000989178
0.0416027
0.191644
0.0393052
0.171802
-7.31991e-08
0.00122949
0.0358018
0.163415
-7.67039e-09
0.00176188
0.0375902
0.183495
0.00162864
0.0389719
0.199611
0.00096202
0.0398878
0.210901
-6.70113e-08
0.0403472
0.216713
-0.000962151
0.0403472
0.216713
-0.00162876
0.0398878
0.210901
-0.00176198
0.0389719
0.199611
-0.00122958
0.0375902
0.183495
0.0358019
0.163414
-7.77994e-08
0.0014691
0.0302048
0.149152
-9.67412e-09
0.00209806
0.0314335
0.169164
0.00193193
0.0323681
0.185088
0.00113794
0.032982
0.19617
-7.43171e-08
0.0332884
0.201852
-0.00113809
0.0332884
0.201852
-0.00193206
0.032982
0.19617
-0.00209817
0.0323681
0.185088
-0.00146919
0.0314336
0.169164
0.0302048
0.149152
-8.04516e-08
0.00172327
0.130076
-1.12528e-08
0.02337
0.00244284
0.149871
0.0240781
0.00223644
0.165427
0.0246355
0.00131167
0.176172
0.0250107
-7.84407e-08
0.181657
0.025198
-0.00131183
0.181657
0.025198
-0.00223658
0.176172
0.0250107
-0.00244295
0.165427
0.0246355
-0.00172336
0.149871
0.0240781
0.130076
-7.89848e-08
0.02337
2.14726e-06
0.00132898
0.0295308
-3.8493e-10
-2.46347e-07
0.00147579
0.032593
1.24626e-07
0.00160355
0.0351729
1.32527e-07
0.00170109
0.037039
-2.95896e-09
0.00175312
0.0380188
-1.38465e-07
0.00175312
0.0380188
-1.30648e-07
0.00170109
0.037039
2.40196e-07
0.00160355
0.0351729
-2.15336e-06
0.00147579
0.032593
0.00132898
0.0295308
-6.32675e-09
3.08021e-05
0.00476962
0.0793748
-9.68834e-10
3.97286e-05
0.00526435
0.0876228
3.65331e-05
0.00568956
0.0945467
2.16499e-05
0.00600547
0.0995426
-9.70197e-09
0.00617286
0.102161
-2.16692e-05
0.00617286
0.102161
-3.65524e-05
0.00600547
0.0995426
-3.97477e-05
0.00568957
0.0945467
-3.08207e-05
0.00526435
0.0876228
0.00476962
0.0793748
-1.84219e-08
8.57697e-05
0.00920083
0.117692
-1.62962e-09
0.000121434
0.0100985
0.13007
0.000112007
0.0108631
0.140411
6.64531e-05
0.0114209
0.14785
-1.69378e-08
0.0117148
0.151742
-6.64868e-05
0.0117148
0.151742
-0.00011204
0.0114209
0.14785
-0.000121466
0.0108631
0.140411
-8.58003e-05
0.0100985
0.13007
0.00920084
0.117692
-2.96712e-08
0.000166798
0.0135158
0.145145
-2.36038e-09
0.000242032
0.0147457
0.160675
0.000224688
0.0157833
0.173574
0.000133399
0.016529
0.182818
-2.45771e-08
0.0169194
0.187645
-0.000133448
0.0169194
0.187645
-0.000224735
0.016529
0.182818
-0.000242077
0.0157834
0.173574
-0.00016684
0.0147457
0.160675
0.0135158
0.145145
-3.97522e-08
0.000270909
0.0168842
0.162547
-3.20107e-09
0.000394668
0.018302
0.180359
0.000367181
0.019484
0.195054
0.000217962
0.0203212
0.205543
-3.24966e-08
0.0207564
0.211006
-0.000218026
0.0207564
0.211006
-0.000367243
0.0203212
0.205543
-0.000394725
0.019484
0.195054
-0.000270961
0.018302
0.180359
0.0168842
0.162547
-4.8501e-08
0.000392716
0.0188115
0.170826
-4.21241e-09
0.000570337
0.0202509
0.190171
0.000530459
0.0214331
0.206017
0.00031465
0.0222579
0.217276
-4.05164e-08
0.0226832
0.223123
-0.000314729
0.0226832
0.223123
-0.000530535
0.0222579
0.217276
-0.000570406
0.0214331
0.206017
-0.000392777
0.020251
0.190171
0.0188115
0.170825
-5.57266e-08
0.000524752
0.0191261
0.170962
-5.50372e-09
0.000758823
0.0204381
0.191223
0.000704968
0.0214956
0.207693
0.000417757
0.022222
0.219338
-4.83225e-08
0.0225934
0.225368
-0.000417852
0.0225934
0.225368
-0.000705057
0.022222
0.219338
-0.000758902
0.0214956
0.207693
-0.00052482
0.0204382
0.191223
0.0191261
0.170962
-6.12662e-08
0.000660304
0.0179252
0.163955
-7.07137e-09
0.000952078
0.0190007
0.18464
0.000883019
0.0198499
0.201326
0.000522544
0.0204245
0.213059
-5.53679e-08
0.0207158
0.219113
-0.000522652
0.0207158
0.219113
-0.000883119
0.0204245
0.213059
-0.000952166
0.0198499
0.201326
-0.000660377
0.0190007
0.18464
0.0179252
0.163955
-6.48841e-08
0.000799379
0.0154997
0.150778
-8.80446e-09
0.00114729
0.0162837
0.171534
0.0010599
0.0168909
0.188135
0.00062557
0.0172965
0.199732
-6.09378e-08
0.0175007
0.205692
-0.000625688
0.0175007
0.205692
-0.00106001
0.0172965
0.199732
-0.00114738
0.0168909
0.188135
-0.000799455
0.0162837
0.171533
0.0154997
0.150778
-6.67554e-08
0.000937166
0.132373
-1.01513e-08
0.0122657
0.00133711
0.153007
0.0127482
0.00123053
0.169297
0.0131273
0.000724105
0.18059
0.0133844
-6.38104e-08
0.186368
0.0135138
-0.000724229
0.186368
0.0135138
-0.00123064
0.18059
0.0133844
-0.00133721
0.169297
0.0131273
-0.000937241
0.153007
0.0127482
0.132373
-6.51828e-08
0.0122657
-5.58888e-06
0.000576042
0.0289604
-3.18957e-10
-8.3344e-06
0.000633668
0.0319621
-6.6263e-06
0.00068246
0.0344887
-3.65795e-06
0.000719534
0.0363165
-2.32581e-09
0.000739023
0.0372761
3.65326e-06
0.000739023
0.0372761
6.62153e-06
0.000719535
0.0363165
8.32966e-06
0.000682461
0.0344887
5.58391e-06
0.000633669
0.0319621
0.000576043
0.0289603
-4.97454e-09
-1.07655e-06
0.00200595
0.077946
-8.36851e-10
-2.2576e-06
0.00220973
0.086048
-9.65341e-07
0.00238341
0.0928445
-3.56873e-08
0.00251256
0.0977487
-7.63648e-09
0.00258099
0.100319
2.0442e-08
0.00258099
0.100319
9.50239e-07
0.00251256
0.0977487
2.24174e-06
0.00238341
0.0928445
1.06193e-06
0.00220973
0.0860479
0.00200595
0.077946
-1.4457e-08
1.71609e-05
0.00390024
0.115781
-1.41781e-09
2.53427e-05
0.00428891
0.127983
2.48527e-05
0.00462024
0.138175
1.53616e-05
0.00486336
0.145508
-1.33426e-08
0.00499184
0.149346
-1.53882e-05
0.00499184
0.149346
-2.48789e-05
0.00486336
0.145508
-2.53678e-05
0.00462024
0.138175
-1.71848e-05
0.00428892
0.127983
0.00390024
0.115781
-2.33387e-08
4.97505e-05
0.00584306
0.143152
-2.0555e-09
7.40035e-05
0.0064022
0.158538
7.0422e-05
0.0068763
0.171321
4.25067e-05
0.00721992
0.18049
-1.93503e-08
0.00740067
0.185278
-4.25451e-05
0.00740067
0.185278
-7.04592e-05
0.00721992
0.18049
-7.40388e-05
0.00687631
0.171321
-4.97832e-05
0.00640221
0.158538
0.00584306
0.143152
-3.13505e-08
9.54657e-05
0.00746718
0.160828
-2.77978e-09
0.000141337
0.00814199
0.178574
0.000133424
0.00870876
0.19323
7.99694e-05
0.00911438
0.203702
-2.55387e-08
0.00932646
0.20916
-8.00198e-05
0.00932647
0.20916
-0.000133472
0.00911439
0.203702
-0.000141382
0.00870878
0.19323
-9.55064e-05
0.008142
0.178574
0.00746719
0.160828
-3.83272e-08
0.000152176
0.00851113
0.169629
-3.63017e-09
0.000223747
0.0092264
0.189015
0.000210292
0.00981912
0.20492
0.000125592
0.0102376
0.216237
-3.17466e-08
0.0104548
0.222121
-0.000125655
0.0104548
0.222121
-0.000210352
0.0102376
0.216237
-0.000223801
0.00981913
0.20492
-0.000152224
0.00922641
0.189015
0.00851114
0.169629
-4.41092e-08
0.000216677
0.00884133
0.170416
-4.67905e-09
0.000316686
0.00952049
0.190829
0.000296706
0.0100736
0.207458
0.00017677
0.0104586
0.219237
-3.77194e-08
0.0106568
0.225342
-0.000176844
0.0106568
0.225342
-0.000296775
0.0104586
0.219237
-0.000316748
0.0100736
0.207458
-0.000216731
0.0095205
0.190828
0.00884134
0.170416
-4.85646e-08
0.000285976
0.00844932
0.164061
-5.91805e-09
0.000416269
0.00902906
0.185001
0.000388788
0.00949221
0.201935
0.000231068
0.00980973
0.213865
-4.30463e-08
0.00997187
0.220029
-0.000231152
0.00997187
0.220029
-0.000388866
0.00980974
0.213865
-0.000416338
0.00949222
0.201935
-0.000286033
0.00902907
0.185001
0.00844934
0.164061
-5.15213e-08
0.00036026
0.00743112
0.151436
-7.26087e-09
0.000520869
0.00787296
0.172529
0.000483814
0.00821872
0.189445
0.000286519
0.00845235
0.201287
-4.72115e-08
0.00857069
0.20738
-0.000286611
0.0085707
0.20738
-0.000483899
0.00845236
0.201287
-0.000520942
0.00821873
0.189445
-0.000360319
0.00787297
0.172529
0.00743113
0.151436
-5.31101e-08
0.000435046
0.133405
-8.28621e-09
0.0059646
0.000625218
0.154439
0.00625043
0.000578469
0.171087
0.00647607
0.000341506
0.18265
0.00663001
-4.93652e-08
0.188572
0.00670787
-0.000341601
0.188572
0.00670787
-0.000578556
0.18265
0.00663001
-0.000625292
0.171087
0.00647608
-0.000435106
0.154439
0.00625044
0.133405
-5.21548e-08
0.00596461
-8.23985e-07
0.000184358
0.0287768
-2.41543e-10
-1.61547e-06
0.000204236
0.0317587
-1.18511e-06
0.000221562
0.0342667
-6.36906e-07
0.000235174
0.0360808
-1.76514e-09
0.00024244
0.037033
6.33351e-07
0.00024244
0.037033
1.18154e-06
0.000235175
0.0360808
1.61181e-06
0.000221562
0.0342667
8.20247e-07
0.000204237
0.0317586
0.000184358
0.0287768
-3.64915e-09
1.75997e-06
0.000721626
0.077407
-6.59712e-10
1.82015e-06
0.000799152
0.085453
1.96753e-06
0.000866362
0.0921995
1.28835e-06
0.000917242
0.0970673
-5.77598e-09
0.000944409
0.0996187
-1.29987e-06
0.00094441
0.0996187
-1.97896e-06
0.000917243
0.0970673
-1.83121e-06
0.000866364
0.0921995
-1.77058e-06
0.000799154
0.085453
0.000721629
0.077407
-1.06735e-08
9.63663e-06
0.00148532
0.115007
-1.13253e-09
1.34684e-05
0.00164164
0.127137
1.27644e-05
0.00177648
0.137265
7.72489e-06
0.00187675
0.144554
-1.00856e-08
0.0019301
0.148368
-7.74494e-06
0.0019301
0.148368
-1.27841e-05
0.00187675
0.144554
-1.34874e-05
0.00177648
0.137265
-9.65455e-06
0.00164165
0.127136
0.00148532
0.115007
-1.74028e-08
2.34514e-05
0.00231091
0.142303
-1.64678e-09
3.41008e-05
0.00254563
0.157623
3.20894e-05
0.00274673
0.170353
1.92403e-05
0.00289424
0.179485
-1.46074e-08
0.00297234
0.184255
-1.92692e-05
0.00297234
0.184255
-3.21175e-05
0.00289424
0.179485
-3.41274e-05
0.00274673
0.170353
-2.3476e-05
0.00254563
0.157623
0.00231091
0.142303
-2.35361e-08
4.32739e-05
0.00304118
0.160054
-2.2203e-09
6.3482e-05
0.00333503
0.177764
5.96655e-05
0.00358442
0.192396
3.567e-05
0.00376501
0.202856
-1.92379e-08
0.00386005
0.208308
-3.5708e-05
0.00386005
0.208308
-5.97019e-05
0.00376501
0.202856
-6.3516e-05
0.00358442
0.192396
-4.33045e-05
0.00333504
0.177764
0.00304119
0.160054
-2.89283e-08
6.85532e-05
0.00355199
0.16905
-2.87527e-09
0.000100559
0.00387377
0.188444
9.44075e-05
0.00414338
0.204367
5.63458e-05
0.00433603
0.215704
-2.38519e-08
0.00443671
0.2216
-5.63927e-05
0.00443671
0.2216
-9.4452e-05
0.00433604
0.215704
-0.0001006
0.00414339
0.204367
-6.85892e-05
0.00387378
0.188444
0.003552
0.16905
-3.34595e-08
9.81247e-05
0.0037678
0.170102
-3.65193e-09
0.000143581
0.00408252
0.190574
0.000134603
0.00434197
0.207269
8.02176e-05
0.00452472
0.219103
-2.82638e-08
0.00461946
0.22524
-8.0273e-05
0.00461947
0.22524
-0.000134655
0.00452473
0.219103
-0.000143628
0.00434198
0.207269
-9.81651e-05
0.00408254
0.190574
0.00376781
0.170102
-3.70335e-08
0.000130729
0.0036668
0.164031
-4.53836e-09
0.000190758
0.0039432
0.185081
0.000178395
0.00416679
0.202123
0.000106102
0.00432186
0.21414
-3.21926e-08
0.00440153
0.220353
-0.000106165
0.00440153
0.220353
-0.000178453
0.00432187
0.21414
-0.00019081
0.0041668
0.202122
-0.000130773
0.00394321
0.185081
0.00366681
0.164031
-3.95298e-08
0.000166122
0.00327708
0.15166
-5.4807e-09
0.000240725
0.00349414
0.172904
0.000223949
0.00366557
0.189963
0.00013276
0.00378246
0.201917
-3.52963e-08
0.00384195
0.208073
-0.000132829
0.00384195
0.208073
-0.000224012
0.00378246
0.201917
-0.00024078
0.00366558
0.189963
-0.000166168
0.00349415
0.172903
0.00327709
0.15166
-4.10244e-08
0.000200016
0.133811
-6.20141e-09
0.00267092
0.000288834
0.155029
0.00281514
0.000268168
0.171844
0.00292927
0.000158661
0.183534
0.00300751
-3.70338e-08
0.189526
0.00304724
-0.000158733
0.189526
0.00304724
-0.000268234
0.183534
0.00300751
-0.00028889
0.171844
0.00292927
-0.000200062
0.155029
0.00281514
0.133811
-4.07779e-08
0.00267092
-1.36749e-06
7.42084e-05
0.028704
-1.71469e-10
-1.97073e-06
8.14555e-05
0.0316778
-1.58921e-06
8.76666e-05
0.0341787
-8.79155e-07
9.25058e-05
0.0359876
-1.30007e-09
9.50627e-05
0.0369371
8.76554e-07
9.50628e-05
0.0369371
1.58661e-06
9.25061e-05
0.0359876
1.96812e-06
8.76669e-05
0.0341787
1.36485e-06
8.1456e-05
0.0316778
7.42088e-05
0.028704
-2.54806e-09
-1.67014e-06
0.000279743
0.0772031
-4.88209e-10
-2.51507e-06
0.000308985
0.0852263
-2.03817e-06
0.000334287
0.0919524
-1.09306e-06
0.000353484
0.0968054
-4.23912e-09
0.000363723
0.0993489
1.08462e-06
0.000363723
0.0993489
2.02986e-06
0.000353484
0.0968054
2.5069e-06
0.000334288
0.0919524
1.66211e-06
0.000308987
0.0852263
0.000279744
0.0772031
-7.56197e-09
6.68109e-07
0.000576738
0.11471
-8.29861e-10
8.1961e-07
0.00063805
0.126807
1.02561e-06
0.000690945
0.136908
7.43152e-07
0.000730484
0.144177
-7.38698e-09
0.000751574
0.147981
-7.57807e-07
0.000751575
0.147981
-1.03992e-06
0.000730486
0.144177
-8.33047e-07
0.000690948
0.136908
-6.79884e-07
0.000638053
0.126807
0.000576742
0.11471
-1.22291e-08
5.56045e-06
0.000909008
0.141966
-1.22354e-09
8.20161e-06
0.00100419
0.157254
7.95131e-06
0.00108598
0.169958
4.87153e-06
0.00114636
0.179072
-1.06812e-08
0.00117845
0.183833
-4.89267e-06
0.00117845
0.183833
-7.97177e-06
0.00114637
0.179072
-8.22098e-06
0.00108598
0.169958
-5.57833e-06
0.00100419
0.157254
0.000909013
0.141965
-1.68988e-08
1.32959e-05
0.00121534
0.159735
-1.64775e-09
1.96921e-05
0.00133821
0.177424
1.87411e-05
0.00144294
0.19204
1.13037e-05
0.00151933
0.20249
-1.40395e-08
0.00155969
0.207938
-1.13314e-05
0.00155969
0.207938
-1.87677e-05
0.00151933
0.20249
-1.97168e-05
0.00144295
0.19204
-1.33183e-05
0.00133821
0.177424
0.00121534
0.159735
-2.09955e-08
2.36307e-05
0.00144245
0.168799
-2.11565e-09
3.49289e-05
0.00158086
0.18819
3.30492e-05
0.00169744
0.204114
1.98293e-05
0.00178138
0.215456
-1.73715e-08
0.00182543
0.221354
-1.98634e-05
0.00182543
0.221354
-3.30816e-05
0.00178138
0.215456
-3.49587e-05
0.00169745
0.204114
-2.3657e-05
0.00158087
0.18819
0.00144246
0.168799
-2.44729e-08
3.61413e-05
0.00155361
0.169954
-2.65006e-09
5.32565e-05
0.00169262
0.190445
5.02275e-05
0.0018079
0.207161
3.00484e-05
0.00188974
0.219014
-2.05517e-08
0.00193235
0.225163
-3.00887e-05
0.00193235
0.225163
-5.02655e-05
0.00188974
0.219014
-5.32908e-05
0.00180791
0.207161
-3.61711e-05
0.00169262
0.190445
0.00155361
0.169954
-2.73011e-08
5.03652e-05
0.00153315
0.164001
-3.24202e-09
7.39712e-05
0.00165839
0.185091
6.95185e-05
0.00176037
0.202175
4.14706e-05
0.00183163
0.214227
-2.34013e-08
0.00186839
0.220459
-4.15164e-05
0.00186839
0.220459
-6.95613e-05
0.00183163
0.214227
-7.40094e-05
0.00176038
0.202174
-5.03976e-05
0.0016584
0.185091
0.00153316
0.164001
-2.94068e-08
6.62815e-05
0.00138692
0.15174
-3.85908e-09
9.65307e-05
0.00148789
0.173044
9.01431e-05
0.00156812
0.190162
5.35614e-05
0.00162319
0.202162
-2.57103e-08
0.00165131
0.208343
-5.36115e-05
0.00165131
0.208343
-9.01896e-05
0.00162319
0.202162
-9.65716e-05
0.00156813
0.190162
-6.63157e-05
0.00148789
0.173044
0.00138693
0.15174
-3.08301e-08
8.18627e-05
0.133974
-4.31929e-09
0.00114166
0.000118826
0.15527
0.00121062
0.00011075
0.172155
0.00126543
6.56747e-05
0.183899
0.00130315
-2.71618e-08
0.18992
0.00132236
-6.57276e-05
0.18992
0.00132236
-0.000110799
0.183899
0.00130315
-0.000118869
0.172154
0.00126543
-8.18976e-05
0.15527
0.00121062
0.133974
-3.11719e-08
0.00114166
-3.85089e-07
1.85644e-05
0.0286858
-1.14572e-10
-5.95395e-07
2.05727e-05
0.0316574
-4.80687e-07
2.24184e-05
0.0341561
-2.67774e-07
2.39423e-05
0.0359634
-9.307e-10
2.47651e-05
0.036912
2.65918e-07
2.47651e-05
0.036912
4.78849e-07
2.39425e-05
0.0359634
5.9357e-07
2.24187e-05
0.0341561
3.83278e-07
2.0573e-05
0.0316574
1.85647e-05
0.0286858
-1.71426e-09
-5.2152e-07
8.44522e-05
0.0771378
-3.37151e-10
-8.86281e-07
9.40518e-05
0.0851532
-7.48357e-07
0.000102624
0.0918721
-4.13803e-07
0.000109305
0.0967197
-3.02448e-09
0.000112912
0.0992603
4.07795e-07
0.000112912
0.0992603
7.42477e-07
0.000109305
0.0967197
8.80545e-07
0.000102625
0.0918721
5.15941e-07
9.40531e-05
0.0851532
8.4453e-05
0.0771377
-5.16181e-09
2.66719e-07
0.000188732
0.114605
-5.76832e-10
1.9172e-07
0.000210352
0.126691
2.21994e-07
0.000229369
0.136782
1.63549e-07
0.000243847
0.144043
-5.26236e-09
0.000251641
0.147842
-1.73965e-07
0.000251641
0.147842
-2.32135e-07
0.000243848
0.144043
-2.01093e-07
0.000229371
0.136782
-2.74902e-07
0.000210354
0.126691
0.000188734
0.114605
-8.41604e-09
2.04719e-06
0.00031223
0.14184
-8.5198e-10
2.86239e-06
0.000347366
0.157117
2.7183e-06
0.000378007
0.16981
1.64868e-06
0.000400966
0.178916
-7.59992e-09
0.000413258
0.183674
-1.6637e-06
0.000413259
0.183674
-2.7328e-06
0.000400967
0.178916
-2.87607e-06
0.000378009
0.16981
-2.05971e-06
0.000347369
0.157117
0.000312233
0.14184
-1.17359e-08
4.9929e-06
0.000432032
0.15961
-1.14429e-09
7.25228e-06
0.000478993
0.17729
6.84358e-06
0.000519527
0.191899
4.10925e-06
0.000549478
0.202344
-9.97261e-09
0.000565415
0.20779
-4.12892e-06
0.000565415
0.20779
-6.86244e-06
0.00054948
0.202344
-7.26982e-06
0.00051953
0.191899
-5.00869e-06
0.000478997
0.17729
0.000432036
0.15961
-1.47097e-08
9.05881e-06
0.00052653
0.168696
-1.45895e-09
1.32902e-05
0.000580953
0.188084
1.25303e-05
0.000627325
0.204007
7.50325e-06
0.000661114
0.215349
-1.23217e-08
0.000678963
0.221248
-7.52749e-06
0.000678963
0.221248
-1.25534e-05
0.000661117
0.215349
-1.33114e-05
0.000627329
0.204007
-9.07754e-06
0.000580957
0.188084
0.000526535
0.168696
-1.72975e-08
1.41117e-05
0.000579374
0.169887
-1.80619e-09
2.0754e-05
0.000635381
0.190384
1.95517e-05
0.000682344
0.207108
1.16885e-05
0.000716052
0.218967
-1.4567e-08
0.000733707
0.22512
-1.17171e-05
0.000733708
0.22512
-1.95787e-05
0.000716054
0.218967
-2.07784e-05
0.000682348
0.207107
-1.4133e-05
0.000635386
0.190384
0.000579379
0.169887
-1.94784e-08
1.99781e-05
0.000582012
0.163979
-2.17849e-09
2.93518e-05
0.000633613
0.185084
2.75855e-05
0.000676051
0.202183
1.64549e-05
0.000705988
0.214248
-1.66008e-08
0.000721509
0.220487
-1.64874e-05
0.00072151
0.220487
-2.7616e-05
0.000705991
0.214248
-2.93792e-05
0.000676054
0.202183
-2.00015e-05
0.000633617
0.185084
0.000582016
0.163979
-2.1206e-08
2.65874e-05
0.000534585
0.151761
-2.55559e-09
3.87574e-05