/*--------------------------------*- C++ -*----------------------------------*\
| =========                 |                                                 |
| \\      /  F ield         | OpenFOAM: The Open Source CFD Toolbox           |
|  \\    /   O peration     | Version:  2106                                  |
|   \\  /    A nd           | Website:  www.openfoam.com                      |
|    \\/     M anipulation  |                                                 |
\*---------------------------------------------------------------------------*/
FoamFile
{
    version     2.0;
    format      ascii;
    arch        "LSB;label=32;scalar=64";
    class       surfaceScalarField;
    location    "0.39";
    object      phi;
}
// * * * * * * * * * * * * * * * * * * * * * * * * * * * * * * * * * * * * * //

dimensions      [0 3 -1 0 0 0 0];

oriented        oriented;

internalField   nonuniform List<scalar> 
29100
(
0.00118078
0.150385
0.0809316
-2.80743e-10
0.00145305
0.155261
0.0889389
0.0012469
0.158678
0.095628
0.00071011
0.160955
0.100416
-3.33597e-09
0.162098
0.102909
-0.000710117
0.162098
0.102909
-0.00124691
0.160955
0.100416
-0.00145305
0.158678
0.095628
-0.00118078
0.155261
0.0889389
0.150385
0.0809316
-5.39555e-09
0.00236381
0.208189
0.155497
-6.61866e-10
0.00328343
0.212767
0.169026
0.00292848
0.215833
0.180087
0.00169406
0.217745
0.18791
-9.21226e-09
0.218683
0.191953
-0.00169408
0.218683
0.191953
-0.0029285
0.217745
0.18791
-0.00328345
0.215833
0.180087
-0.00236382
0.212767
0.169026
0.208189
0.155497
-1.4188e-08
0.0030148
0.219262
0.184746
-9.81675e-10
0.00426408
0.222173
0.199776
0.00382751
0.224068
0.211874
0.00221678
0.225099
0.220355
-1.45981e-08
0.225577
0.224713
-0.00221681
0.225577
0.224713
-0.00382753
0.225099
0.220355
-0.0042641
0.224068
0.211874
-0.00301483
0.222173
0.199776
0.219262
0.184746
-2.17235e-08
0.00344218
0.205964
0.191858
-1.2451e-09
0.00480205
0.207199
0.207025
0.00430125
0.207946
0.219081
0.00248668
0.208172
0.227471
-1.99029e-08
0.208235
0.231765
-0.00248672
0.208235
0.231765
-0.00430129
0.208172
0.227471
-0.00480209
0.207946
0.219081
-0.00344221
0.207199
0.207025
0.205964
0.191858
-2.8323e-08
0.00366952
0.180976
0.186488
-1.48404e-09
0.00504972
0.180921
0.201289
0.00451067
0.180796
0.212935
0.00260427
0.180448
0.220991
-2.54239e-08
0.180222
0.225101
-0.00260432
0.180222
0.225101
-0.00451071
0.180448
0.220991
-0.00504977
0.180796
0.212935
-0.00366955
0.180921
0.201289
0.180976
0.186488
-3.42652e-08
0.0037519
0.151589
0.173973
-1.70963e-09
0.00511185
0.150679
0.188253
0.00455647
0.149986
0.199397
0.00262915
0.149302
0.207066
-3.1411e-08
0.148914
0.210968
-0.00262922
0.148914
0.210968
-0.00455653
0.149302
0.207066
-0.0051119
0.149986
0.199397
-0.00375195
0.150679
0.188253
0.151589
0.173973
-3.9713e-08
0.0037569
0.121893
0.157445
-1.98724e-09
0.00508235
0.120502
0.171203
0.00452309
0.119495
0.181868
0.00260965
0.118668
0.189172
-3.79966e-08
0.118221
0.19288
-0.00260972
0.118221
0.19288
-0.00452316
0.118668
0.189172
-0.00508242
0.119495
0.181868
-0.00375695
0.120502
0.171203
0.121893
0.157445
-4.4841e-08
0.00371915
0.0941078
0.138741
-2.29637e-09
0.00502361
0.0924968
0.152031
0.00447049
0.091376
0.162276
0.00258042
0.0905527
0.169261
-4.50772e-08
0.0901268
0.172798
-0.0025805
0.0901268
0.172798
-0.00447057
0.0905527
0.169261
-0.00502368
0.091376
0.162276
-0.00371921
0.0924967
0.152031
0.0941078
0.138741
-4.96699e-08
0.00368367
0.0693475
0.118919
-2.74657e-09
0.00500027
0.0676845
0.131806
0.00445111
0.0666237
0.141692
0.00256841
0.0659213
0.148402
-5.21226e-08
0.0655735
0.151792
-0.00256852
0.0655735
0.151792
-0.0044512
0.0659213
0.148402
-0.00500035
0.0666237
0.141692
-0.00368374
0.0676845
0.131806
0.0693475
0.118919
-5.39464e-08
0.00390021
0.0985866
-3.70501e-09
0.0478716
0.00518516
0.111131
0.0465584
0.00455927
0.120704
0.0457219
0.00261088
0.127175
0.0452147
-5.82493e-08
0.130435
0.0449659
-0.00261099
0.130435
0.0449659
-0.00455937
0.127174
0.0452147
-0.00518525
0.120704
0.0457219
-0.00390028
0.111131
0.0465584
0.0985866
-5.75248e-08
0.0478715
-0.000240393
0.0364818
0.0446902
-4.18731e-10
-0.000242457
0.0396514
0.0492896
-0.000170498
0.0423299
0.0532261
-8.49353e-05
0.0442453
0.0560849
-5.36767e-09
0.0452361
0.0575882
8.49247e-05
0.0452361
0.0575882
0.000170488
0.0442453
0.0560849
0.000242447
0.0423299
0.0532261
0.000240383
0.0396514
0.0492896
0.0364818
0.0446902
-8.70776e-09
6.37839e-05
0.0805348
0.111381
-9.54671e-10
0.000251503
0.0863083
0.122181
0.00030079
0.0911097
0.131258
0.000201544
0.0944735
0.137781
-1.59995e-08
0.0962013
0.141189
-0.000201575
0.0962013
0.141189
-0.00030082
0.0944735
0.137781
-0.000251532
0.0911097
0.131258
-6.38103e-05
0.0863083
0.122181
0.0805348
0.111381
-2.43717e-08
0.000611522
0.111885
0.152784
-1.52844e-09
0.00102805
0.118562
0.167106
0.00100587
0.124042
0.178964
0.000614731
0.127806
0.187413
-2.64286e-08
0.129725
0.191804
-0.000614783
0.129725
0.191804
-0.00100592
0.127806
0.187413
-0.00102809
0.124042
0.178964
-0.000611565
0.118562
0.167105
0.111885
0.152784
-3.85096e-08
0.0012276
0.128224
0.174291
-2.0565e-09
0.00186737
0.134568
0.19038
0.00175688
0.139707
0.203526
0.00104919
0.143164
0.212822
-3.68676e-08
0.144908
0.217631
-0.00104926
0.144908
0.217631
-0.00175695
0.143164
0.212822
-0.00186744
0.139707
0.203526
-0.00122766
0.134568
0.19038
0.128224
0.174291
-5.1118e-08
0.0018289
0.131312
0.181571
-2.59553e-09
0.0026632
0.136638
0.198385
0.00246079
0.140883
0.211962
0.00145344
0.143668
0.221493
-4.75973e-08
0.145057
0.226405
-0.00145353
0.145057
0.226405
-0.00246088
0.143668
0.221493
-0.00266328
0.140883
0.211962
-0.00182897
0.136638
0.198385
0.131312
0.181571
-6.2328e-08
0.00237151
0.124203
0.178711
-3.16614e-09
0.0033691
0.128244
0.195649
0.00308062
0.131388
0.20918
0.00180818
0.13339
0.218616
-5.8801e-08
0.134372
0.22346
-0.00180829
0.134372
0.22346
-0.00308072
0.13339
0.218616
-0.0033692
0.131388
0.20918
-0.0023716
0.128244
0.195649
0.124203
0.178711
-7.21821e-08
0.0028325
0.110135
0.168681
-3.89854e-09
0.00396899
0.112893
0.185417
0.00360816
0.114958
0.198659
0.0021106
0.116223
0.207837
-7.04311e-08
0.116832
0.212531
-0.00211074
0.116832
0.212531
-0.00360828
0.116223
0.207837
-0.0039691
0.114958
0.198659
-0.0028326
0.112893
0.185417
0.110135
0.168681
-8.07749e-08
0.00320629
0.0920295
0.153641
-4.86232e-09
0.00447287
0.0936395
0.170017
0.00405752
0.0947836
0.182865
0.00236977
0.0954551
0.191717
-8.20208e-08
0.0957715
0.196228
-0.00236993
0.0957715
0.196228
-0.00405767
0.0954551
0.191717
-0.004473
0.0947836
0.182865
-0.0032064
0.0936395
0.170017
0.0920295
0.153641
-8.79169e-08
0.00352875
0.0722795
0.135141
-6.07005e-09
0.00493038
0.0729401
0.151104
0.004467
0.0734101
0.163529
0.00260483
0.0736807
0.172038
-9.24941e-08
0.0738078
0.176361
-0.00260501
0.0738078
0.176361
-0.00446717
0.0736807
0.172038
-0.00493052
0.0734101
0.163529
-0.00352886
0.0729401
0.151104
0.0722795
0.135141
-9.28092e-08
0.00394856
0.114286
-7.84971e-09
0.0526318
0.00546731
0.129848
0.0527049
0.00491433
0.141854
0.0528132
0.00284961
0.150028
0.0528916
-1.00154e-07
0.154166
0.0529273
-0.0028498
0.154166
0.0529273
-0.00491451
0.150028
0.0528916
-0.00546746
0.141854
0.0528132
-0.00394868
0.129848
0.0527049
0.114286
-9.55225e-08
0.0526318
3.92783e-05
0.00993745
0.0347134
-4.55513e-10
3.52065e-05
0.0109652
0.0383285
2.95661e-05
0.0118377
0.0413941
1.63539e-05
0.0124854
0.0436127
-5.47095e-09
0.0128266
0.0447779
-1.63648e-05
0.0128266
0.0447779
-2.95768e-05
0.0124854
0.0436127
-3.52166e-05
0.0118377
0.0413941
-3.92882e-05
0.0109652
0.0383285
0.00993745
0.0347134
-9.36684e-09
0.000280058
0.0301078
0.0909301
-1.11405e-09
0.000380035
0.0327971
0.100249
0.000339413
0.0350478
0.108089
0.000197904
0.0366708
0.113737
-1.69414e-08
0.0375187
0.116695
-0.000197938
0.0375187
0.116695
-0.000339446
0.0366708
0.113737
-0.000380066
0.0350478
0.108089
-0.000280087
0.0327971
0.100249
0.0301078
0.0909301
-2.67098e-08
0.000597061
0.0508315
0.131463
-1.82787e-09
0.000846679
0.0547948
0.144858
0.000766685
0.0580673
0.156024
0.000449241
0.0603744
0.164027
-2.85599e-08
0.0615694
0.168203
-0.000449298
0.0615694
0.168203
-0.00076674
0.0603744
0.164027
-0.00084673
0.0580673
0.156024
-0.000597108
0.0547948
0.144858
0.0508315
0.131463
-4.25214e-08
0.000960535
0.0664479
0.157714
-2.52618e-09
0.00137773
0.0709687
0.173788
0.00125783
0.0746558
0.187058
0.000738498
0.0772039
0.196511
-4.03637e-08
0.0785116
0.201428
-0.000738578
0.0785116
0.201428
-0.0012579
0.077204
0.196511
-0.0013778
0.0746558
0.187058
-0.000960598
0.0709687
0.173788
0.0664479
0.157714
-5.66223e-08
0.00134539
0.0749938
0.17168
-3.27946e-09
0.00192604
0.0794171
0.189356
0.00176284
0.082976
0.203805
0.00103527
0.0853877
0.214037
-5.24249e-08
0.0866128
0.219339
-0.00103538
0.0866128
0.219339
-0.00176294
0.0853878
0.214037
-0.00192613
0.0829761
0.203805
-0.00134547
0.0794172
0.189356
0.0749939
0.17168
-6.8982e-08
0.00173136
0.0765123
0.175461
-4.10626e-09
0.00246175
0.0803777
0.193958
0.00225214
0.0834333
0.208932
0.00132189
0.0854614
0.219473
-6.47679e-08
0.0864799
0.224915
-0.00132202
0.0864799
0.224915
-0.00225226
0.0854614
0.219473
-0.00246186
0.0834333
0.208932
-0.00173145
0.0803777
0.193958
0.0765123
0.175461
-7.95022e-08
0.0020954
0.0720928
0.171005
-5.1503e-09
0.00296102
0.0751457
0.189784
0.0027062
0.0775021
0.204845
0.00158749
0.0790324
0.215384
-7.71557e-08
0.079792
0.220806
-0.00158764
0.079792
0.220806
-0.00270633
0.0790324
0.215384
-0.00296114
0.0775021
0.204845
-0.0020955
0.0751457
0.189783
0.0720928
0.171005
-8.81347e-08
0.00242168
0.0632936
0.160018
-6.52714e-09
0.00341425
0.0654449
0.178726
0.00311887
0.0670625
0.1936
0.00182874
0.0680933
0.203946
-8.88918e-08
0.0686001
0.209249
-0.00182891
0.0686001
0.209249
-0.00311903
0.0680933
0.203946
-0.00341438
0.0670625
0.1936
-0.0024218
0.0654449
0.178726
0.0632936
0.160018
-9.45526e-08
0.00272284
0.0517723
0.143939
-8.27243e-09
0.00383777
0.0530622
0.162371
0.00350044
0.0540264
0.176902
0.00204965
0.0546384
0.186944
-9.86919e-08
0.0549389
0.192071
-0.00204984
0.0549389
0.192071
-0.00350062
0.0546385
0.186944
-0.00383792
0.0540265
0.176902
-0.00272296
0.0530622
0.162371
0.0517723
0.143939
-9.78884e-08
0.00305884
0.123959
-1.06362e-08
0.0390397
0.00427702
0.142039
0.0396528
0.00387857
0.156135
0.0401442
0.00226171
0.16581
0.0404739
-1.04702e-07
0.17073
0.0406366
-0.00226192
0.17073
0.0406366
-0.00387875
0.16581
0.0404739
-0.00427718
0.156135
0.0401442
-0.00305896
0.142039
0.0396528
0.123959
-9.82374e-08
0.0390397
-3.16062e-05
0.00402807
0.030717
-4.26379e-10
-4.51578e-05
0.0044355
0.0339065
-3.64939e-05
0.00478142
0.036604
-2.01471e-05
0.0050386
0.0385578
-4.76739e-09
0.00517332
0.0395844
2.01375e-05
0.00517332
0.0395844
3.64846e-05
0.0050386
0.0385578
4.51484e-05
0.00478142
0.036604
3.15971e-05
0.0044355
0.0339065
0.00402807
0.030717
-8.57201e-09
9.00285e-06
0.0124879
0.0824613
-1.0658e-09
1.56528e-05
0.0136824
0.0909958
1.99776e-05
0.0146949
0.098171
1.44093e-05
0.0154328
0.103349
-1.50843e-08
0.0158197
0.106063
-1.44393e-05
0.0158197
0.106063
-2.00067e-05
0.0154328
0.103349
-1.56799e-05
0.0146949
0.098171
-9.02737e-06
0.0136824
0.0909958
0.0124879
0.0824613
-2.44736e-08
0.000120157
0.0221988
0.121632
-1.82589e-09
0.000182067
0.0241774
0.134301
0.000174783
0.0258433
0.144883
0.000106474
0.0270388
0.152489
-2.57279e-08
0.0276628
0.156466
-0.000106525
0.0276628
0.156466
-0.000174832
0.0270388
0.152489
-0.000182114
0.0258433
0.144883
-0.0001202
0.0241774
0.134301
0.0221988
0.121632
-3.95228e-08
0.000287381
0.0307345
0.148891
-2.62045e-09
0.000428195
0.0332471
0.164578
0.000403483
0.0353418
0.177584
0.000241857
0.0368226
0.186889
-3.66433e-08
0.0375907
0.191742
-0.000241929
0.0375907
0.191742
-0.000403552
0.0368226
0.186889
-0.00042826
0.0353418
0.177584
-0.000287439
0.0332471
0.164578
0.0307345
0.148891
-5.27876e-08
0.000494988
0.0366027
0.165316
-3.50632e-09
0.000727045
0.0393118
0.18306
0.000679757
0.0415407
0.197653
0.00040481
0.0430921
0.208043
-4.776e-08
0.0438907
0.213444
-0.000404904
0.0438907
0.213444
-0.000679846
0.0430921
0.208043
-0.000727126
0.0415407
0.197653
-0.000495059
0.0393118
0.18306
0.0366027
0.165316
-6.42402e-08
0.000727046
0.0391753
0.172161
-4.49837e-09
0.00105476
0.0417657
0.191177
0.000980835
0.0438601
0.206687
0.000581854
0.0452938
0.21767
-5.89947e-08
0.0460253
0.223363
-0.00058197
0.0460253
0.223363
-0.000980943
0.0452938
0.21767
-0.00105486
0.0438601
0.206687
-0.00072713
0.0417657
0.191177
0.0391754
0.172161
-7.37622e-08
0.000966497
0.0384864
0.170728
-5.72473e-09
0.00138998
0.0407203
0.190405
0.00128778
0.0424865
0.206321
0.000762035
0.0436747
0.217529
-7.00279e-08
0.0442753
0.223318
-0.000762171
0.0442753
0.223318
-0.00128791
0.0436747
0.217529
-0.0013901
0.0424865
0.206321
-0.000966591
0.0407203
0.190405
0.0384865
0.170727
-8.1237e-08
0.00120061
0.0350202
0.162284
-7.29304e-09
0.00171974
0.0367534
0.182173
0.00158929
0.038091
0.198126
0.000938625
0.0389767
0.209295
-8.01366e-08
0.0394207
0.215043
-0.000938781
0.0394207
0.215043
-0.00158943
0.0389767
0.209295
-0.00171987
0.038091
0.198126
-0.00120071
0.0367534
0.182173
0.0350202
0.162284
-8.63021e-08
0.00143365
0.0295159
0.14801
-9.19293e-09
0.00204688
0.0307017
0.16781
0.00188444
0.0316027
0.183553
0.00110983
0.0321938
0.194502
-8.81149e-08
0.0324888
0.200113
-0.00111
0.0324888
0.200113
-0.0018846
0.0321939
0.194501
-0.00204701
0.0316027
0.183553
-0.00143375
0.0307018
0.16781
0.029516
0.14801
-8.81968e-08
0.00168194
0.128979
-1.15392e-08
0.0228145
0.00238339
0.148545
0.0234945
0.00218139
0.16391
0.0240295
0.00127914
0.174516
0.0243894
-9.23124e-08
0.179929
0.0245691
-0.00127932
0.179929
0.0245691
-0.00218155
0.174516
0.0243894
-0.00238352
0.16391
0.0240295
-0.00168205
0.148545
0.0234945
0.128979
-8.70041e-08
0.0228145
2.15421e-06
0.0012929
0.0294219
-3.93068e-10
-2.2979e-07
0.00143591
0.032473
8.83978e-08
0.0015605
0.0350432
9.61901e-08
0.00165564
0.0369022
-3.86757e-09
0.0017064
0.0378781
-1.0392e-07
0.0017064
0.0378781
-9.60748e-08
0.00165564
0.0369022
2.22196e-07
0.0015605
0.0350431
-2.16148e-06
0.00143591
0.032473
0.0012929
0.0294219
-7.29333e-09
3.00235e-05
0.00464236
0.0790818
-1.02848e-09
3.85437e-05
0.00512388
0.0872993
3.53408e-05
0.005538
0.0941967
2.09098e-05
0.0058457
0.0991731
-1.23645e-08
0.00600875
0.101781
-2.09344e-05
0.00600875
0.101781
-3.53649e-05
0.0058457
0.0991731
-3.8567e-05
0.00553801
0.0941967
-3.00455e-05
0.00512388
0.0872993
0.00464237
0.0790818
-2.1038e-08
8.33802e-05
0.00895296
0.117238
-1.75069e-09
0.000117798
0.00982542
0.129565
0.000108507
0.0105689
0.139862
6.43274e-05
0.0111112
0.147268
-2.11922e-08
0.011397
0.151142
-6.43694e-05
0.011397
0.151142
-0.000108548
0.0111112
0.147268
-0.000117837
0.0105689
0.139862
-8.3416e-05
0.00982543
0.129565
0.00895297
0.117238
-3.36314e-08
0.000161968
0.0131434
0.144539
-2.52548e-09
0.000234724
0.0143367
0.159994
0.000217726
0.0153435
0.172826
0.000129203
0.0160669
0.182022
-3.02578e-08
0.0164457
0.186822
-0.000129262
0.0164457
0.186822
-0.000217783
0.0160669
0.182022
-0.000234778
0.0153436
0.172826
-0.000162017
0.0143367
0.159994
0.0131434
0.144539
-4.48169e-08
0.000262844
0.0164053
0.161792
-3.39889e-09
0.00038257
0.0177779
0.179499
0.000355716
0.0189222
0.194102
0.000211079
0.0197324
0.204522
-3.94482e-08
0.0201534
0.209947
-0.000211157
0.0201534
0.209947
-0.00035579
0.0197324
0.204522
-0.000382638
0.0189222
0.194101
-0.000262904
0.0177779
0.179499
0.0164054
0.161792
-5.44711e-08
0.000380724
0.0182605
0.169925
-4.38067e-09
0.000552515
0.0196507
0.189132
0.000513641
0.0207921
0.204856
0.000304584
0.0215879
0.216024
-4.86389e-08
0.0219983
0.221822
-0.000304679
0.0219983
0.221822
-0.00051373
0.021588
0.216024
-0.000552595
0.0207921
0.204856
-0.000380794
0.0196507
0.189132
0.0182605
0.169925
-6.24149e-08
0.000508322
0.0185468
0.169933
-5.5683e-09
0.00073461
0.0198106
0.190019
0.000682209
0.0208286
0.206337
0.000404173
0.0215274
0.217868
-5.75205e-08
0.0218845
0.223836
-0.000404286
0.0218845
0.223836
-0.000682313
0.0215274
0.217868
-0.000734702
0.0208286
0.206337
-0.0005084
0.0198106
0.190019
0.0185468
0.169933
-6.85092e-08
0.000639112
0.0173641
0.162827
-7.04622e-09
0.000921078
0.018397
0.183305
0.000854015
0.0192119
0.19981
0.000505286
0.0197627
0.211408
-6.54822e-08
0.0200418
0.217391
-0.000505413
0.0200418
0.217391
-0.000854132
0.0197627
0.211408
-0.000921179
0.0192119
0.19981
-0.000639196
0.018397
0.183305
0.0173641
0.162827
-7.24349e-08
0.000773153
0.0149992
0.149602
-8.76232e-09
0.00110935
0.0157494
0.170121
0.00102465
0.01633
0.186519
0.000604679
0.0167175
0.197967
-7.15643e-08
0.0169125
0.203847
-0.000604818
0.0169125
0.203847
-0.00102478
0.0167175
0.197967
-0.00110946
0.01633
0.186519
-0.00077324
0.0157494
0.170121
0.0149992
0.149601
-7.36319e-08
0.000906573
0.131214
-1.07275e-08
0.0118578
0.00129295
0.15159
0.0123179
0.00118954
0.167664
0.012679
0.000699845
0.1788
0.0129239
-7.44909e-08
0.184494
0.0130471
-0.000699989
0.184494
0.0130471
-0.00118967
0.1788
0.0129239
-0.00129306
0.167664
0.0126791
-0.000906658
0.15159
0.0123179
0.131214
-7.21802e-08
0.0118578
-5.49954e-06
0.000553883
0.0288735
-3.33381e-10
-8.21909e-06
0.000609252
0.0318665
-6.57147e-06
0.000656173
0.0343853
-3.63393e-06
0.000691808
0.0362074
-3.02097e-09
0.000710558
0.0371639
3.62794e-06
0.000710558
0.0371639
6.56541e-06
0.000691809
0.0362074
8.21309e-06
0.000656174
0.0343853
5.4939e-06
0.000609253
0.0318665
0.000553884
0.0288735
-5.97608e-09
-1.42914e-06
0.00192769
0.0777094
-9.1285e-10
-2.79098e-06
0.00212333
0.0857866
-1.50525e-06
0.0022902
0.0925614
-4.04649e-07
0.00241432
0.0974495
-9.67935e-09
0.00248006
0.100011
3.85097e-07
0.00248006
0.100011
1.48632e-06
0.00241433
0.0974495
2.77174e-06
0.0022902
0.0925614
1.40884e-06
0.00212333
0.0857866
0.00192769
0.0777094
-1.72982e-08
1.59185e-05
0.00374635
0.115403
-1.52417e-09
2.34108e-05
0.00411916
0.127562
2.29522e-05
0.00443715
0.137715
1.41992e-05
0.00467049
0.14502
-1.65278e-08
0.00479379
0.148843
-1.42319e-05
0.00479379
0.148843
-2.29842e-05
0.00467049
0.14502
-2.34412e-05
0.00443715
0.137715
-1.59461e-05
0.00411917
0.127562
0.00374635
0.115403
-2.68393e-08
4.69925e-05
0.00560919
0.142629
-2.19924e-09
6.97918e-05
0.00614476
0.157946
6.6374e-05
0.00659902
0.170668
4.00557e-05
0.00692822
0.179791
-2.35589e-08
0.00710138
0.184555
-4.01022e-05
0.00710138
0.184555
-6.64189e-05
0.00692823
0.179791
-6.98338e-05
0.00659903
0.170668
-4.70305e-05
0.00614477
0.157945
0.0056092
0.142629
-3.56228e-08
9.06386e-05
0.00716294
0.160147
-2.96159e-09
0.000134056
0.00780812
0.177792
0.000126489
0.00835008
0.192358
7.57945e-05
0.00873782
0.202763
-3.06459e-08
0.00894052
0.208184
-7.58548e-05
0.00894053
0.208184
-0.000126547
0.00873783
0.202763
-0.000134109
0.00835009
0.192358
-9.06856e-05
0.00780814
0.177792
0.00716295
0.160147
-4.33181e-08
0.000144782
0.00815723
0.168786
-3.81227e-09
0.000212712
0.00883966
0.188033
0.000199843
0.00940509
0.203814
0.000119325
0.00980412
0.215038
-3.76636e-08
0.0100112
0.220871
-0.000119399
0.0100112
0.220871
-0.000199912
0.00980412
0.215038
-0.000212775
0.0094051
0.203814
-0.000144837
0.00883967
0.188033
0.00815724
0.168786
-4.96744e-08
0.000206329
0.00846561
0.169418
-4.81344e-09
0.00030138
0.00911209
0.189652
0.000282279
0.00963842
0.206123
0.000168144
0.0100045
0.217782
-4.43626e-08
0.0101929
0.223823
-0.000168231
0.0101929
0.223823
-0.00028236
0.0100045
0.217782
-0.000301452
0.00963843
0.206123
-0.00020639
0.00911211
0.189652
0.00846562
0.169418
-5.45615e-08
0.000272406
0.00808224
0.162938
-6.0184e-09
0.000396353
0.00863269
0.183661
0.000370111
0.00907219
0.200403
0.000219939
0.00937329
0.21219
-5.02945e-08
0.00952698
0.218277
-0.000220037
0.00952699
0.218276
-0.000370202
0.0093733
0.21219
-0.000396432
0.0090722
0.200403
-0.000272471
0.0086327
0.18366
0.00808225
0.162938
-5.77375e-08
0.000343234
0.00710126
0.150239
-7.35862e-09
0.000496176
0.00751956
0.171081
0.000460827
0.00784676
0.18778
0.00027288
0.00806773
0.19946
-5.47846e-08
0.00817962
0.205468
-0.000272986
0.00817962
0.205468
-0.000460924
0.00806774
0.19946
-0.00049626
0.00784677
0.18778
-0.000343301
0.00751957
0.171081
0.00710127
0.150239
-5.88432e-08
0.000415007
0.132206
-8.80069e-09
0.00569408
0.000596199
0.152964
0.00596403
0.000551474
0.169379
0.00617704
0.000325508
0.180771
0.00632234
-5.69639e-08
0.186603
0.0063958
-0.000325619
0.186603
0.0063958
-0.000551574
0.180771
0.00632234
-0.000596284
0.169379
0.00617705
-0.000415074
0.152964
0.00596403
0.132206
-5.79457e-08
0.00569409
-7.74817e-07
0.000172636
0.0287017
-2.46847e-10
-1.54887e-06
0.000191305
0.0316759
-1.15115e-06
0.000207621
0.0341773
-6.23991e-07
0.000220458
0.0359864
-2.25843e-09
0.000227313
0.036936
6.19471e-07
0.000227313
0.036936
1.14667e-06
0.000220458
0.0359864
1.54436e-06
0.000207621
0.0341773
7.70359e-07
0.000191306
0.0316759
0.000172636
0.0287017
-4.2675e-09
1.60671e-06
0.000678846
0.0772016
-6.86497e-10
1.57553e-06
0.000751877
0.0852261
1.69407e-06
0.0008153
0.0919536
1.1102e-06
0.000863342
0.0968072
-7.21073e-09
0.000889003
0.0993509
-1.12451e-06
0.000889003
0.0993509
-1.70814e-06
0.000863344
0.0968072
-1.58892e-06
0.000815302
0.0919536
-1.61923e-06
0.00075188
0.085226
0.000678848
0.0772016
-1.23363e-08
8.96213e-06
0.00139959
0.114674
-1.19176e-09
1.24302e-05
0.00154694
0.126763
1.17437e-05
0.00167417
0.136857
7.09644e-06
0.00176882
0.144119
-1.23522e-08
0.00181919
0.147919
-7.12091e-06
0.00181919
0.147919
-1.17675e-05
0.00176882
0.144119
-1.24529e-05
0.00167418
0.136857
-8.98314e-06
0.00154694
0.126763
0.0013996
0.114674
-1.99281e-08
2.19175e-05
0.00217876
0.141828
-1.73629e-09
3.17687e-05
0.00239987
0.157083
2.9848e-05
0.00258944
0.169755
1.78809e-05
0.00272853
0.178843
-1.75902e-08
0.00280218
0.18359
-1.79157e-05
0.00280218
0.18359
-2.98815e-05
0.00272853
0.178843
-3.18002e-05
0.00258945
0.169754
-2.19461e-05
0.00239987
0.157083
0.00217877
0.141828
-2.67817e-08
4.05402e-05
0.00286721
0.159418
-2.33719e-09
5.93664e-05
0.00314368
0.177029
5.57447e-05
0.00337841
0.191573
3.33076e-05
0.00354839
0.201966
-2.28251e-08
0.00363785
0.207382
-3.33526e-05
0.00363785
0.207382
-5.57877e-05
0.00354839
0.201966
-5.94061e-05
0.00337842
0.191573
-4.05757e-05
0.00314368
0.177029
0.00286722
0.159418
-3.2757e-08
6.43057e-05
0.00334755
0.168241
-2.99639e-09
9.42211e-05
0.00364978
0.187497
8.84023e-05
0.00390306
0.203295
5.27417e-05
0.004084
0.214538
-2.79609e-08
0.00417855
0.220383
-5.27966e-05
0.00417855
0.220383
-8.84542e-05
0.00408401
0.214538
-9.42684e-05
0.00390307
0.203295
-6.4347e-05
0.00364979
0.187497
0.00334756
0.168241
-3.77456e-08
9.21096e-05
0.00354881
0.169125
-3.74999e-09
0.000134676
0.00384384
0.189415
0.000126202
0.00408703
0.205947
7.5191e-05
0.00425828
0.217658
-3.28206e-08
0.00434704
0.223729
-7.52552e-05
0.00434704
0.223729
-0.000126262
0.00425828
0.217658
-0.00013473
0.00408704
0.205947
-9.21558e-05
0.00384385
0.189415
0.00354882
0.169125
-4.16612e-08
0.00012276
0.00345119
0.162913
-4.62865e-09
0.000179045
0.00370973
0.183738
0.000167399
0.00391882
0.200583
9.95454e-05
0.00406378
0.212452
-3.71107e-08
0.00413823
0.218585
-9.96178e-05
0.00413823
0.218585
-0.000167466
0.00406378
0.212452
-0.000179105
0.00391883
0.200582
-0.00012281
0.00370974
0.183738
0.0034512
0.162913
-4.43411e-08
0.000156036
0.00308202
0.150452
-5.57017e-09
0.000226074
0.00328456
0.171436
0.000210294
0.00344449
0.18827
0.000124652
0.00355351
0.200056
-4.04076e-08
0.00360898
0.206122
-0.000124731
0.00360899
0.206122
-0.000210366
0.00355352
0.200056
-0.000226137
0.0034445
0.18827
-0.000156087
0.00328457
0.171436
0.00308203
0.150452
-4.55818e-08
0.000188092
0.13259
-6.52728e-09
0.00250997
0.000271521
0.153521
0.00264428
0.000252035
0.170092
0.00275053
0.00014909
0.181604
0.00282336
-4.21792e-08
0.187501
0.00286033
-0.000149172
0.187501
0.00286033
-0.00025211
0.181604
0.00282336
-0.000271586
0.170092
0.00275053
-0.000188144
0.153521
0.00264429
0.13259
-4.54284e-08
0.00250997
-1.32196e-06
6.85597e-05
0.0286344
-1.72567e-10
-1.90853e-06
7.52317e-05
0.0316013
-1.54794e-06
8.09607e-05
0.034096
-8.59271e-07
8.54267e-05
0.0359003
-1.64602e-09
8.77856e-05
0.0368473
8.55994e-07
8.77857e-05
0.0368473
1.54472e-06
8.54269e-05
0.0359003
1.90533e-06
8.09611e-05
0.034096
1.31876e-06
7.52324e-05
0.0316013
6.85599e-05
0.0286344
-2.94292e-09
-1.69683e-06
0.000258737
0.0770131
-4.92189e-10
-2.56004e-06
0.000285753
0.0850164
-2.10402e-06
0.000309174
0.0917249
-1.14227e-06
0.000326955
0.0965647
-5.2411e-09
0.000336439
0.0991011
1.13187e-06
0.000336439
0.0991011
2.09391e-06
0.000326956
0.0965647
2.55016e-06
0.000309176
0.0917249
1.68724e-06
0.000285755
0.0850164
0.000258737
0.0770131
-8.60998e-09
4.25812e-07
0.000533965
0.114398
-8.3302e-10
4.23879e-07
0.000590743
0.126459
6.1716e-07
0.000639768
0.136526
4.8718e-07
0.000676421
0.14377
-8.96062e-09
0.000695977
0.14756
-5.04894e-07
0.000695977
0.14756
-6.3429e-07
0.000676422
0.14377
-4.39265e-07
0.00063977
0.136526
-4.38437e-07
0.000590746
0.126458
0.000533969
0.114398
-1.36958e-08
4.86959e-06
0.000842176
0.141515
-1.25444e-09
7.15302e-06
0.000930326
0.156741
6.93876e-06
0.00100613
0.169388
4.25411e-06
0.0010621
0.17846
-1.27382e-08
0.00109185
0.183198
-4.27926e-06
0.00109185
0.183198
-6.96297e-06
0.00106211
0.17846
-7.17583e-06
0.00100613
0.169388
-4.89044e-06
0.00093033
0.156741
0.000842181
0.141515
-1.90868e-08
1.19904e-05
0.0011263
0.159122
-1.69496e-09
1.77272e-05
0.00124003
0.176714
1.68648e-05
0.00133701
0.191243
1.01704e-05
0.00140775
0.201627
-1.64876e-08
0.00144513
0.207039
-1.02029e-05
0.00144513
0.207039
-1.68959e-05
0.00140776
0.201627
-1.7756e-05
0.00133702
0.191243
-1.20162e-05
0.00124003
0.176714
0.0011263
0.159122
-2.3681e-08
2.1531e-05
0.0013367
0.16801
-2.16344e-09
3.17935e-05
0.00146468
0.187262
3.00728e-05
0.00157249
0.203061
1.80401e-05
0.00165011
0.214308
-2.01382e-08
0.00169085
0.220155
-1.80797e-05
0.00169085
0.220155
-3.01103e-05
0.00165012
0.214308
-3.18279e-05
0.0015725
0.203061
-2.15612e-05
0.00146468
0.187262
0.0013367
0.168009
-2.75231e-08
3.30971e-05
0.00143928
0.168989
-2.68104e-09
4.87422e-05
0.00156763
0.189296
4.59611e-05
0.00167408
0.205848
2.74924e-05
0.00174963
0.217577
-2.35752e-08
0.00178896
0.223659
-2.75386e-05
0.00178896
0.223659
-4.60046e-05
0.00174963
0.217577
-4.87814e-05
0.00167409
0.205848
-3.3131e-05
0.00156764
0.189296
0.00143928
0.168989
-3.06239e-08
4.62598e-05
0.00141967
0.162886
-3.26079e-09
6.79244e-05
0.00153513
0.183749
6.38318e-05
0.00162913
0.200632
3.80756e-05
0.0016948
0.212533
-2.66235e-08
0.00172867
0.218683
-3.81277e-05
0.00172867
0.218683
-6.38804e-05
0.0016948
0.212532
-6.79676e-05
0.00162914
0.200631
-4.62965e-05
0.00153514
0.183749
0.00141968
0.162886
-3.28954e-08
6.10102e-05
0.00128354
0.150528
-3.85516e-09
8.88576e-05
0.00137646
0.171567
8.298e-05
0.0014503
0.188455
4.93033e-05
0.00150097
0.200284
-2.90401e-08
0.00152684
0.206373
-4.93599e-05
0.00152684
0.206373
-8.30325e-05
0.00150097
0.200284
-8.89038e-05
0.00145031
0.188455
-6.10487e-05
0.00137647
0.171567
0.00128355
0.150527
-3.42376e-08
7.55705e-05
0.132742
-4.42462e-09
0.00105584
0.000109663
0.153744
0.00111925
0.000102193
0.17038
0.00116962
6.05915e-05
0.181942
0.0012043
-3.05281e-08
0.187867
0.00122195
-6.06509e-05
0.187867
0.00122195
-0.000102248
0.181942
0.0012043
-0.000109711
0.17038
0.00116963
-7.56098e-05
0.153744
0.00111925
0.132742
-3.46976e-08
0.00105584
-3.57167e-07
1.63821e-05
0.0286184
-1.13022e-10
-5.57108e-07
1.81691e-05
0.0315833
-4.53205e-07
1.98235e-05
0.0340761
-2.53852e-07
2.11962e-05
0.0358789
-1.1707e-09
2.19381e-05
0.0368251
2.51526e-07
2.19382e-05
0.0368251
4.50943e-07
2.11964e-05
0.0358789
5.54855e-07
1.98238e-05
0.0340761
3.54994e-07
1.81694e-05
0.0315833
1.63823e-05
0.0286184
-1.97414e-09
-5.07432e-07
7.5855e-05
0.0769542
-3.34774e-10
-8.67575e-07
8.45278e-05
0.0849504
-7.42477e-07
9.22995e-05
0.0916523
-4.15391e-07
9.83704e-05
0.0964872
-3.71256e-09
0.000101649
0.099021
4.08039e-07
0.00010165
0.099021
7.35378e-07
9.83708e-05
0.0964872
8.6061e-07
9.23006e-05
0.0916523
5.00842e-07
8.4529e-05
0.0849504
7.58556e-05
0.0769541
-5.87357e-09
1.92135e-07
0.000170629
0.114303
-5.73867e-10
7.68604e-08
0.000190266
0.126353
9.73733e-08
0.000207575
0.136411
8.33164e-08
0.000220762
0.143648
-6.33066e-09
0.000227865
0.147434
-9.5794e-08
0.000227866
0.147434
-1.09473e-07
0.000220763
0.143648
-8.73064e-08
0.000207576
0.136411
-2.01347e-07
0.000190268
0.126353
0.000170632
0.114303
-9.47929e-09
1.78691e-06
0.000283231
0.1414
-8.5278e-10
2.46936e-06
0.0003152
0.156615
2.33687e-06
0.000343118
0.169253
1.41457e-06
0.000364049
0.178318
-8.98721e-09
0.00037526
0.183052
-1.43231e-06
0.00037526
0.183052
-2.35389e-06
0.00036405
0.178318
-2.48543e-06
0.00034312
0.169253
-1.80139e-06
0.000315202
0.156615
0.000283234
0.1414
-1.32166e-08
4.4565e-06
0.000392624
0.159008
-1.14513e-09
6.44734e-06
0.000435367
0.176592
6.07356e-06
0.000472297
0.191114
3.64297e-06
0.000499595
0.201493
-1.16054e-08
0.000514124
0.206903
-3.66584e-06
0.000514124
0.206903
-6.09541e-06
0.000499597
0.201493
-6.46763e-06
0.0004723
0.191114
-4.4746e-06
0.000435371
0.176592
0.000392628
0.159008
-1.65139e-08
8.15464e-06
0.000478958
0.167915
-1.45118e-09
1.19408e-05
0.000528472
0.187165
1.12476e-05
0.000570689
0.202964
6.73092e-06
0.000601456
0.21421
-1.41406e-08
0.000617709
0.220059
-6.75872e-06
0.00061771
0.220059
-1.1274e-05
0.000601458
0.21421
-1.1965e-05
0.000570692
0.202963
-8.17596e-06
0.000528477
0.187165
0.000478963
0.167915
-1.93483e-08
1.27599e-05
0.00052724
0.168928
-1.77935e-09
1.8747e-05
0.000578149
0.189241
1.76521e-05
0.000620853
0.205799
1.05489e-05
0.000651506
0.217534
-1.65225e-08
0.000667561
0.22362
-1.05813e-05
0.000667562
0.22362
-1.76826e-05
0.000651508
0.217534
-1.87748e-05
0.000620857
0.205799
-1.2784e-05
0.000578154
0.189241
0.000527245
0.168928
-2.17189e-08
1.81136e-05
0.000529669
0.162866
-2.13424e-09
2.65999e-05
0.000576519
0.183742
2.4993e-05
0.000615055
0.200639
1.49052e-05
0.00064224
0.212552
-1.86534e-08
0.000656333
0.218709
-1.49418e-05
0.000656334
0.218709
-2.50273e-05
0.000642242
0.212552
-2.66306e-05
0.000615058
0.200639
-1.814e-05
0.000576523
0.183742
0.000529673
0.162866
-2.35766e-08
2.41514e-05
0.000486438
0.150547
-2.48391e-09