/*--------------------------------*- C++ -*----------------------------------*\
| =========                 |                                                 |
| \\      /  F ield         | OpenFOAM: The Open Source CFD Toolbox           |
|  \\    /   O peration     | Version:  2106                                  |
|   \\  /    A nd           | Website:  www.openfoam.com                      |
|    \\/     M anipulation  |                                                 |
\*---------------------------------------------------------------------------*/
FoamFile
{
    version     2.0;
    format      ascii;
    arch        "LSB;label=32;scalar=64";
    class       volVectorField;
    location    "0.39";
    object      U;
}
// * * * * * * * * * * * * * * * * * * * * * * * * * * * * * * * * * * * * * //

dimensions      [0 1 -1 0 0 0 0];

internalField   nonuniform List<vector> 
10000
(
(0.0625633 0.0737212 0.345094)
(0.0533587 0.0838415 0.359574)
(0.0398491 0.0929928 0.370938)
(0.0247207 0.0993751 0.378787)
(0.00837773 0.102675 0.382775)
(-0.00837775 0.102675 0.382775)
(-0.0247207 0.0993751 0.378787)
(-0.0398491 0.0929928 0.370938)
(-0.0533587 0.0838415 0.359574)
(-0.0625633 0.0737212 0.345094)
(0.172038 0.204106 0.727849)
(0.14522 0.231342 0.7475)
(0.108414 0.255296 0.762141)
(0.0670755 0.271878 0.77204)
(0.0227047 0.28043 0.776989)
(-0.0227048 0.28043 0.776989)
(-0.0670755 0.271878 0.77204)
(-0.108414 0.255296 0.762141)
(-0.14522 0.231342 0.7475)
(-0.172038 0.204106 0.727849)
(0.222557 0.26427 0.923787)
(0.185757 0.295956 0.939618)
(0.137789 0.323625 0.950685)
(0.0848267 0.342552 0.95799)
(0.0286426 0.352249 0.961573)
(-0.0286427 0.352249 0.961573)
(-0.0848267 0.342552 0.95799)
(-0.137789 0.323625 0.950685)
(-0.185757 0.295956 0.939618)
(-0.222557 0.26427 0.923787)
(0.237491 0.281551 1.02293)
(0.196272 0.311384 1.03344)
(0.144685 0.337486 1.04011)
(0.0886573 0.355139 1.04437)
(0.0298679 0.364125 1.0464)
(-0.029868 0.364125 1.0464)
(-0.0886574 0.355139 1.04437)
(-0.144685 0.337486 1.04011)
(-0.196272 0.311384 1.03344)
(-0.237491 0.281551 1.02293)
(0.235443 0.27863 1.07129)
(0.192972 0.304557 1.07725)
(0.141498 0.327377 1.08038)
(0.0863533 0.342675 1.08226)
(0.0290351 0.350413 1.0831)
(-0.0290352 0.350413 1.0831)
(-0.0863535 0.342675 1.08226)
(-0.141498 0.327377 1.08038)
(-0.192972 0.304557 1.07725)
(-0.235443 0.27863 1.07129)
(0.224314 0.264979 1.09238)
(0.182447 0.286287 1.09495)
(0.133139 0.305193 1.0956)
(0.0809489 0.317791 1.09585)
(0.0271694 0.324127 1.0959)
(-0.0271696 0.324127 1.0959)
(-0.080949 0.317791 1.09585)
(-0.133139 0.305193 1.0956)
(-0.182447 0.286287 1.09495)
(-0.224314 0.264979 1.09238)
(0.207855 0.244914 1.09897)
(0.167768 0.261371 1.09924)
(0.12187 0.276118 1.09832)
(0.0738341 0.285924 1.09755)
(0.0247393 0.290833 1.09712)
(-0.0247395 0.290833 1.09712)
(-0.0738343 0.285924 1.09755)
(-0.12187 0.276118 1.09832)
(-0.167768 0.261371 1.09924)
(-0.207855 0.244914 1.09897)
(0.188411 0.221176 1.09825)
(0.15089 0.232834 1.09706)
(0.10914 0.243421 1.09525)
(0.0659033 0.250493 1.09393)
(0.0220465 0.254033 1.09324)
(-0.0220467 0.254033 1.09324)
(-0.0659035 0.250493 1.09393)
(-0.10914 0.243421 1.09525)
(-0.15089 0.232834 1.09706)
(-0.188411 0.221176 1.09825)
(0.167525 0.195566 1.09423)
(0.133196 0.202625 1.09215)
(0.0959462 0.20919 1.08991)
(0.057753 0.213704 1.08835)
(0.0192902 0.215983 1.08756)
(-0.0192905 0.215983 1.08756)
(-0.0577533 0.213704 1.08835)
(-0.0959464 0.20919 1.08991)
(-0.133196 0.202625 1.09215)
(-0.167525 0.195566 1.09423)
(0.146367 0.169736 1.08913)
(0.115895 0.170732 1.08658)
(0.0829032 0.173921 1.08419)
(0.0497172 0.176246 1.08259)
(0.0165766 0.177441 1.08178)
(-0.0165769 0.177441 1.08178)
(-0.0497175 0.176246 1.08259)
(-0.0829035 0.173921 1.08419)
(-0.115895 0.170732 1.08658)
(-0.146368 0.169736 1.08913)
(0.0111895 0.0142941 0.266647)
(0.00940033 0.0175833 0.278916)
(0.00709795 0.0202253 0.288962)
(0.00449297 0.0220365 0.295956)
(0.00153724 0.0229801 0.299535)
(-0.00153727 0.0229801 0.299535)
(-0.004493 0.0220365 0.295956)
(-0.00709798 0.0202253 0.288962)
(-0.00940036 0.0175832 0.278916)
(-0.0111896 0.014294 0.266647)
(0.0543344 0.0657467 0.629916)
(0.0466529 0.0790991 0.651882)
(0.0357028 0.0905395 0.669497)
(0.0225703 0.0986448 0.681612)
(0.00772354 0.102899 0.687761)
(-0.00772363 0.102899 0.687761)
(-0.0225704 0.0986448 0.681612)
(-0.0357029 0.0905394 0.669497)
(-0.046653 0.0790991 0.651882)
(-0.0543345 0.0657466 0.629916)
(0.0975587 0.116536 0.877127)
(0.0832245 0.137814 0.900976)
(0.0633524 0.156072 0.919682)
(0.0398087 0.168955 0.93239)
(0.0135819 0.175683 0.938789)
(-0.0135821 0.175683 0.938789)
(-0.0398088 0.168955 0.93239)
(-0.0633526 0.156072 0.919682)
(-0.0832246 0.137814 0.900976)
(-0.0975588 0.116536 0.877127)
(0.133439 0.158225 1.04506)
(0.11286 0.184247 1.06708)
(0.0853547 0.206468 1.08393)
(0.0533282 0.222033 1.09523)
(0.0181425 0.230115 1.10088)
(-0.0181427 0.230115 1.10088)
(-0.0533284 0.222033 1.09523)
(-0.0853549 0.206468 1.08393)
(-0.11286 0.184247 1.06708)
(-0.133439 0.158225 1.04506)
(0.159035 0.187506 1.15816)
(0.133347 0.215209 1.17677)
(0.100211 0.238704 1.19063)
(0.062285 0.255041 1.1998)
(0.0211347 0.263477 1.20434)
(-0.0211349 0.263477 1.20434)
(-0.0622852 0.255041 1.1998)
(-0.100211 0.238704 1.19063)
(-0.133348 0.215209 1.17677)
(-0.159035 0.187505 1.15816)
(0.174412 0.204576 1.23312)
(0.144992 0.231479 1.2479)
(0.108298 0.254094 1.25856)
(0.0669867 0.269711 1.26552)
(0.0226754 0.277731 1.26893)
(-0.0226757 0.277731 1.26893)
(-0.066987 0.269711 1.26552)
(-0.108299 0.254094 1.25856)
(-0.144993 0.231479 1.2479)
(-0.174412 0.204576 1.23312)
(0.180654 0.210809 1.28177)
(0.148887 0.235026 1.29289)
(0.110548 0.255139 1.30064)
(0.0680663 0.268943 1.30561)
(0.0229885 0.275998 1.30801)
(-0.0229889 0.275998 1.30801)
(-0.0680667 0.268943 1.30561)
(-0.110548 0.255139 1.30064)
(-0.148887 0.235026 1.29289)
(-0.180654 0.210809 1.28177)
(0.179127 0.207865 1.31245)
(0.146339 0.228035 1.32041)
(0.108033 0.244513 1.32573)
(0.0662319 0.255766 1.32906)
(0.022321 0.261499 1.33065)
(-0.0223214 0.261499 1.33065)
(-0.0662323 0.255766 1.32906)
(-0.108034 0.244513 1.32573)
(-0.146339 0.228035 1.32041)
(-0.179127 0.207864 1.31245)
(0.171309 0.197442 1.33102)
(0.138784 0.212659 1.33644)
(0.101873 0.224735 1.33987)
(0.0621869 0.233 1.34193)
(0.0209131 0.237207 1.34289)
(-0.0209136 0.237207 1.34289)
(-0.0621874 0.233 1.34193)
(-0.101874 0.224735 1.33987)
(-0.138785 0.212659 1.33644)
(-0.171309 0.197442 1.33102)
(0.158782 0.182342 1.34164)
(0.127785 0.190065 1.34515)
(0.0930312 0.197425 1.34717)
(0.0565039 0.202498 1.34831)
(0.0189554 0.205078 1.34881)
(-0.018956 0.205078 1.34881)
(-0.0565045 0.202498 1.34831)
(-0.0930317 0.197425 1.34717)
(-0.127785 0.190065 1.34515)
(-0.158782 0.182342 1.34164)
(0.00111471 0.00124456 0.158003)
(0.00112651 0.0015897 0.166322)
(0.000878146 0.0019961 0.173266)
(0.000587699 0.00229713 0.178182)
(0.000204772 0.0024639 0.180726)
(-0.000204804 0.0024639 0.180726)
(-0.000587729 0.00229712 0.178182)
(-0.000878175 0.00199609 0.173266)
(-0.00112654 0.00158969 0.166322)
(-0.00111473 0.00124454 0.158003)
(0.0179122 0.0207856 0.442689)
(0.0161084 0.025357 0.46294)
(0.0126063 0.0296599 0.479568)
(0.00809577 0.0328376 0.491238)
(0.0027895 0.0345445 0.497243)
(-0.0027896 0.0345445 0.497243)
(-0.00809586 0.0328376 0.491238)
(-0.0126064 0.0296598 0.479568)
(-0.0161085 0.0253569 0.46294)
(-0.0179123 0.0207855 0.442689)
(0.0407851 0.047476 0.686811)
(0.0360174 0.0570303 0.714444)
(0.0279778 0.0657457 0.73677)
(0.0178201 0.0721171 0.752308)
(0.00611802 0.0755096 0.760263)
(-0.00611819 0.0755096 0.760263)
(-0.0178202 0.0721171 0.752307)
(-0.027978 0.0657457 0.73677)
(-0.0360176 0.0570302 0.714444)
(-0.0407852 0.0474759 0.686811)
(0.0654082 0.0762013 0.889758)
(0.0569999 0.0902446 0.92097)
(0.0439468 0.102808 0.945765)
(0.0278108 0.111895 0.962872)
(0.00951892 0.116698 0.971587)
(-0.00951915 0.116698 0.971587)
(-0.027811 0.111895 0.962872)
(-0.043947 0.102808 0.945765)
(-0.0570001 0.0902445 0.92097)
(-0.0654084 0.0762012 0.889758)
(0.0873358 0.101634 1.05491)
(0.075238 0.118694 1.08688)
(0.0575926 0.13373 1.11183)
(0.0362395 0.144497 1.1289)
(0.0123698 0.150152 1.13755)
(-0.0123701 0.150152 1.13755)
(-0.0362398 0.144497 1.1289)
(-0.0575928 0.13373 1.11183)
(-0.0752382 0.118694 1.08688)
(-0.087336 0.101634 1.05491)
(0.104354 0.121127 1.18712)
(0.0889477 0.13946 1.21793)
(0.0676161 0.155393 1.24155)
(0.042323 0.166701 1.25757)
(0.0144093 0.172604 1.26565)
(-0.0144096 0.172604 1.26565)
(-0.0423234 0.166701 1.25757)
(-0.0676164 0.155393 1.24155)
(-0.088948 0.13946 1.21792)
(-0.104354 0.121127 1.18712)
(0.115642 0.133749 1.29153)
(0.0975594 0.151683 1.31999)
(0.0736601 0.167036 1.34145)
(0.0458743 0.177844 1.35588)
(0.0155798 0.183453 1.36311)
(-0.0155803 0.183453 1.36311)
(-0.0458748 0.177844 1.35588)
(-0.0736605 0.167036 1.34145)
(-0.0975598 0.151683 1.31999)
(-0.115642 0.133749 1.29153)
(0.121103 0.139421 1.37293)
(0.101132 0.155505 1.39844)
(0.0758468 0.169029 1.41737)
(0.047005 0.178478 1.42999)
(0.0159251 0.183358 1.43628)
(-0.0159256 0.183358 1.43628)
(-0.0470055 0.178478 1.42999)
(-0.0758473 0.169029 1.41737)
(-0.101132 0.155505 1.39844)
(-0.121103 0.139421 1.37293)
(0.12116 0.138609 1.43548)
(0.100178 0.151693 1.45792)
(0.0746084 0.162374 1.47431)
(0.0459992 0.169804 1.48511)
(0.0155444 0.173627 1.49047)
(-0.015545 0.173627 1.49047)
(-0.0459998 0.169804 1.48511)
(-0.0746089 0.162374 1.47431)
(-0.100178 0.151693 1.45792)
(-0.12116 0.138609 1.43548)
(0.116646 0.133119 1.48262)
(0.0955092 0.14093 1.50249)
(0.0704325 0.148005 1.51645)
(0.043156 0.152904 1.52551)
(0.0145393 0.15541 1.52997)
(-0.0145399 0.15541 1.52997)
(-0.0431566 0.152904 1.52551)
(-0.070433 0.148005 1.51644)
(-0.0955097 0.14093 1.50249)
(-0.116647 0.133119 1.48262)
(0.000706675 0.000929021 0.138516)
(0.000551637 0.00116501 0.145355)
(0.000377288 0.00133208 0.150922)
(0.000233663 0.00143075 0.15483)
(7.81893e-05 0.00148005 0.156845)
(-7.82167e-05 0.00148005 0.156845)
(-0.00023369 0.00143075 0.15483)
(-0.000377314 0.00133207 0.150922)
(-0.000551662 0.00116499 0.145355)
(-0.000706697 0.000929003 0.138516)
(0.0069416 0.00830388 0.397148)
(0.00602505 0.0102354 0.41529)
(0.00463142 0.011906 0.429974)
(0.00295396 0.0131044 0.440249)
(0.00101433 0.0137418 0.445536)
(-0.00101441 0.0137418 0.445536)
(-0.00295404 0.0131044 0.440249)
(-0.0046315 0.0119059 0.429974)
(-0.00602513 0.0102354 0.41529)
(-0.00694166 0.00830383 0.397148)
(0.0169979 0.0200769 0.631136)
(0.0148222 0.0244421 0.657892)
(0.0114674 0.0282716 0.679377)
(0.00730387 0.0310501 0.694347)
(0.00250795 0.0325277 0.702029)
(-0.00250809 0.0325277 0.702029)
(-0.00730401 0.0310501 0.694347)
(-0.0114676 0.0282715 0.679377)
(-0.0148223 0.024442 0.657892)
(-0.016998 0.0200768 0.631136)
(0.0291212 0.0342004 0.838463)
(0.02531 0.0411334 0.871098)
(0.0195553 0.0472148 0.897051)
(0.0124154 0.0516226 0.915043)
(0.00425708 0.0539593 0.924246)
(-0.00425729 0.0539593 0.924246)
(-0.0124156 0.0516226 0.915043)
(-0.0195555 0.0472147 0.897051)
(-0.0253101 0.0411334 0.871098)
(-0.0291213 0.0342003 0.838462)
(0.0412856 0.0482698 1.019)
(0.0356585 0.0573155 1.05504)
(0.0274386 0.0652041 1.08339)
(0.0173507 0.0708928 1.10293)
(0.00593787 0.0738955 1.11289)
(-0.00593815 0.0738955 1.11289)
(-0.017351 0.0708927 1.10293)
(-0.0274389 0.065204 1.08339)
(-0.0356587 0.0573154 1.05504)
(-0.0412858 0.0482697 1.019)
(0.0520272 0.0605595 1.17388)
(0.0445912 0.0709254 1.21124)
(0.0341289 0.0798797 1.24028)
(0.0214858 0.0862934 1.26018)
(0.00733707 0.0896622 1.27029)
(-0.00733741 0.0896622 1.27029)
(-0.0214862 0.0862934 1.26018)
(-0.0341292 0.0798796 1.24028)
(-0.0445915 0.0709254 1.21124)
(-0.0520274 0.0605594 1.17388)
(0.060388 0.0699619 1.30489)
(0.0513114 0.0807098 1.34192)
(0.039035 0.0898746 1.37036)
(0.0244595 0.0963896 1.38974)
(0.00833318 0.099794 1.39955)
(-0.00833358 0.099794 1.39955)
(-0.0244599 0.0963895 1.38974)
(-0.0390353 0.0898745 1.37036)
(-0.0513118 0.0807097 1.34192)
(-0.0603883 0.0699618 1.30489)
(0.0658036 0.0758268 1.41413)
(0.0553962 0.0860057 1.44961)
(0.04187 0.0945416 1.47657)
(0.0261083 0.10056 1.49483)
(0.0088732 0.103689 1.50402)
(-0.00887366 0.103689 1.50402)
(-0.0261087 0.10056 1.49483)
(-0.0418704 0.0945416 1.47657)
(-0.0553966 0.0860056 1.44961)
(-0.0658039 0.0758267 1.41413)
(0.0680999 0.0779171 1.50364)
(0.0567815 0.086675 1.53692)
(0.042612 0.093813 1.56188)
(0.0264277 0.0988103 1.57863)
(0.00895734 0.101394 1.58702)
(-0.00895785 0.101394 1.58702)
(-0.0264282 0.0988103 1.57863)
(-0.0426125 0.0938129 1.56188)
(-0.0567819 0.0866749 1.53692)
(-0.0681003 0.0779171 1.50364)
(0.067473 0.0770127 1.57523)
(0.0556739 0.0828009 1.60657)
(0.0413578 0.0878349 1.62921)
(0.0254803 0.0913271 1.64419)
(0.00860777 0.0931188 1.65163)
(-0.00860829 0.0931188 1.65163)
(-0.0254808 0.0913271 1.64418)
(-0.0413583 0.0878349 1.62921)
(-0.0556744 0.0828009 1.60657)
(-0.0674733 0.0770127 1.57523)
(0.000125438 0.000136709 0.127805)
(0.000116478 0.000179612 0.134189)
(8.59489e-05 0.000223865 0.139377)
(5.87582e-05 0.000254866 0.143024)
(2.02786e-05 0.000272421 0.144907)
(-2.03008e-05 0.000272419 0.144907)
(-5.87801e-05 0.000254861 0.143024)
(-8.59701e-05 0.000223857 0.139377)
(-0.000116498 0.0001796 0.134189)
(-0.000125456 0.000136695 0.127805)
(0.00243341 0.00281447 0.370534)
(0.00217661 0.00348977 0.387885)
(0.00170449 0.00411236 0.401936)
(0.00110137 0.00457543 0.411793)
(0.00038024 0.00482672 0.416872)
(-0.000380311 0.00482672 0.416872)
(-0.00110144 0.00457542 0.411793)
(-0.00170456 0.00411233 0.401936)
(-0.00217667 0.00348973 0.387885)
(-0.00243346 0.00281443 0.370534)
(0.00662679 0.00768847 0.595322)
(0.00588647 0.0094249 0.621616)
(0.00461276 0.0110024 0.642792)
(0.00296364 0.0121756 0.657605)
(0.00102165 0.0128077 0.665223)
(-0.00102177 0.0128077 0.665223)
(-0.00296376 0.0121756 0.657605)
(-0.00461288 0.0110024 0.642792)
(-0.00588658 0.00942485 0.621616)
(-0.00662689 0.00768841 0.595322)
(0.0121515 0.0141018 0.800534)
(0.0107219 0.0170954 0.833642)
(0.00837686 0.0197888 0.860117)
(0.00535892 0.0217815 0.878567)
(0.00184414 0.0228498 0.888035)
(-0.00184431 0.0228498 0.888035)
(-0.00535909 0.0217815 0.878567)
(-0.00837703 0.0197888 0.860116)
(-0.010722 0.0170953 0.833642)
(-0.0121517 0.0141017 0.800534)
(0.0181522 0.0210326 0.985335)
(0.0158988 0.0251938 1.02317)
(0.012365 0.0289023 1.05317)
(0.0078765 0.0316275 1.07399)
(0.00270516 0.0330811 1.08464)
(-0.00270539 0.0330811 1.08464)
(-0.00787672 0.0316274 1.07399)
(-0.0123652 0.0289023 1.05317)
(-0.015899 0.0251937 1.02317)
(-0.0181524 0.0210325 0.985335)
(0.0238809 0.0275931 1.14955)
(0.0207481 0.0326189 1.19017)
(0.0160478 0.0370492 1.22208)
(0.0101767 0.04028 1.24412)
(0.00348761 0.0419944 1.25537)
(-0.00348789 0.0419944 1.25537)
(-0.010177 0.04028 1.24412)
(-0.0160481 0.0370492 1.22208)
(-0.0207483 0.0326188 1.19017)
(-0.0238811 0.027593 1.14955)
(0.0287446 0.0330886 1.2935)
(0.0247549 0.0385404 1.33518)
(0.0190289 0.0432831 1.3676)
(0.0120099 0.0467132 1.38989)
(0.00410626 0.0485235 1.40123)
(-0.00410658 0.0485235 1.40123)
(-0.0120102 0.0467132 1.38989)
(-0.0190292 0.043283 1.3676)
(-0.0247552 0.0385404 1.33518)
(-0.0287448 0.0330885 1.2935)
(0.0323116 0.0370135 1.41778)
(0.0275657 0.0423898 1.45909)
(0.0210475 0.0469908 1.49093)
(0.0132167 0.0502878 1.5127)
(0.00450739 0.0520177 1.52373)
(-0.00450776 0.0520177 1.52373)
(-0.0132171 0.0502878 1.5127)
(-0.0210478 0.0469907 1.49093)
(-0.027566 0.0423897 1.45909)
(-0.0323118 0.0370134 1.41778)
(0.0343549 0.0390834 1.52307)
(0.0290158 0.0438946 1.56308)
(0.0219847 0.0478955 1.59356)
(0.0137248 0.0507346 1.61421)
(0.00466682 0.0522138 1.62462)
(-0.00466723 0.0522138 1.62462)
(-0.0137252 0.0507346 1.61421)
(-0.0219851 0.0478955 1.59356)
(-0.0290161 0.0438946 1.56308)
(-0.0343552 0.0390833 1.52307)
(0.0348585 0.0395986 1.60995)
(0.0290848 0.0429822 1.6488)
(0.021793 0.0459115 1.67728)
(0.0135053 0.0479612 1.69631)
(0.00457534 0.0490186 1.70583)
(-0.00457577 0.0490186 1.70583)
(-0.0135058 0.0479612 1.69631)
(-0.0217934 0.0459115 1.67728)
(-0.0290851 0.0429822 1.6488)
(-0.0348588 0.0395986 1.60994)
(7.63831e-05 0.000103506 0.124995)
(5.30487e-05 0.000131388 0.131188)
(3.21492e-05 0.000147383 0.13619)
(1.94847e-05 0.000155132 0.1397)
(6.29729e-06 0.000158787 0.14151)
(-6.31449e-06 0.000158786 0.14151)
(-1.95017e-05 0.000155128 0.1397)
(-3.21661e-05 0.000147377 0.13619)
(-5.30641e-05 0.000131378 0.131188)
(-7.63971e-05 0.000103494 0.124995)
(0.0009864 0.00117956 0.362471)
(0.000845754 0.00146337 0.379395)
(0.000645752 0.00170169 0.393042)
(0.000411938 0.00187236 0.402606)
(0.000141325 0.00196348 0.407531)
(-0.00014138 0.00196348 0.407531)
(-0.000411992 0.00187235 0.402606)
(-0.000645806 0.00170167 0.393042)
(-0.000845803 0.00146335 0.379395)
(-0.000986442 0.00117953 0.362471)
(0.00271703 0.00320091 0.583548)
(0.00237024 0.00393729 0.609432)
(0.0018386 0.00457901 0.630225)
(0.00117562 0.00504945 0.644766)
(0.000404375 0.00530154 0.652245)
(-0.000404469 0.00530154 0.652245)
(-0.00117571 0.00504943 0.644766)
(-0.00183869 0.00457898 0.630225)
(-0.00237033 0.00393725 0.609432)
(-0.0027171 0.00320087 0.583548)
(0.00508895 0.00595721 0.787347)
(0.00445276 0.0072614 0.820353)
(0.00346531 0.00840978 0.846724)
(0.00221398 0.00925518 0.865117)
(0.000761524 0.00970783 0.874561)
(-0.000761659 0.00970783 0.874561)
(-0.00221412 0.00925516 0.865117)
(-0.00346544 0.00840975 0.846724)
(-0.00445288 0.00726136 0.820353)
(-0.00508905 0.00595715 0.787347)
(0.00779053 0.00907701 0.973258)
(0.0068015 0.0109485 1.01154)
(0.00528674 0.0125968 1.04193)
(0.0033698 0.0138078 1.06305)
(0.00115788 0.0144544 1.07388)
(-0.00115806 0.0144544 1.07388)
(-0.00336997 0.0138078 1.06305)
(-0.00528691 0.0125968 1.04193)
(-0.00680165 0.0109484 1.01154)
(-0.00779066 0.00907695 0.973257)
(0.0105057 0.0121861 1.14095)
(0.00912636 0.0145204 1.18273)
(0.00706889 0.0165651 1.21563)
(0.00449077 0.0180598 1.23842)
(0.00154058 0.0188548 1.25008)
(-0.00154079 0.0188548 1.25008)
(-0.00449098 0.0180598 1.23842)
(-0.00706909 0.0165651 1.21563)
(-0.00912654 0.0145204 1.18273)
(-0.0105059 0.0121861 1.14095)
(0.0129446 0.0149446 1.29033)
(0.0111684 0.0175567 1.33393)
(0.0086076 0.0198224 1.36799)
(0.00544616 0.0214672 1.39149)
(0.00186457 0.0223379 1.40347)
(-0.00186482 0.0223379 1.40347)
(-0.0054464 0.0214672 1.39149)
(-0.00860784 0.0198223 1.36799)
(-0.0111686 0.0175566 1.33393)
(-0.0129448 0.0149445 1.29033)
(0.014865 0.0170669 1.42147)
(0.0127209 0.0197213 1.46542)
(0.00974539 0.0219916 1.49948)
(0.00613718 0.0236256 1.52286)
(0.00209615 0.0244857 1.53475)
(-0.00209644 0.0244857 1.53475)
(-0.00613746 0.0236256 1.52286)
(-0.00974565 0.0219916 1.49948)
(-0.0127212 0.0197212 1.46542)
(-0.0148652 0.0170669 1.42146)
(0.0161092 0.0183561 1.53439)
(0.0136582 0.0208046 1.57767)
(0.0103867 0.0228438 1.61085)
(0.00650377 0.0242964 1.63344)
(0.00221486 0.0250553 1.64486)
(-0.00221517 0.0250553 1.64486)
(-0.00650407 0.0242964 1.63344)
(-0.010387 0.0228438 1.61085)
(-0.0136584 0.0208045 1.57767)
(-0.0161095 0.0183561 1.53439)
(0.0166221 0.0189072 1.629)
(0.0139226 0.0207073 1.67172)
(0.0104721 0.0222515 1.70325)
(0.00650882 0.0233351 1.72441)
(0.00220831 0.0238954 1.73503)
(-0.00220864 0.0238954 1.73503)
(-0.00650913 0.0233351 1.72441)
(-0.0104724 0.0222515 1.70325)
(-0.0139229 0.0207072 1.67172)
(-0.0166224 0.0189072 1.629)
(1.04646e-05 1.28405e-05 0.123593)
(6.91904e-06 1.77988e-05 0.129725)
(3.64281e-06 2.1043e-05 0.134673)
(2.718e-06 2.2866e-05 0.138146)
(8.99933e-07 2.39202e-05 0.139937)
(-9.1284e-07 2.39192e-05 0.139937)
(-2.73069e-06 2.2863e-05 0.138146)
(-3.65521e-06 2.10382e-05 0.134672)
(-6.93092e-06 1.77918e-05 0.129725)
(-1.04748e-05 1.28318e-05 0.123593)
(0.000329938 0.000385567 0.35851)
(0.000287735 0.000481709 0.375276)
(0.0002226 0.000565597 0.388788)
(0.000143598 0.000627507 0.39826)
(4.94967e-05 0.000661124 0.403139)
(-4.95379e-05 0.000661121 0.403139)
(-0.000143638 0.000627499 0.39826)
(-0.000222639 0.000565583 0.388788)
(-0.000287772 0.00048169 0.375276)
(-0.00032997 0.000385544 0.358509)
(0.00099016 0.00115242 0.577629)
(0.000872753 0.00142595 0.603341)
(0.000682747 0.00166929 0.623992)
(0.000439345 0.00185091 0.638441)
(0.000151559 0.00194918 0.645874)
(-0.00015163 0.00194918 0.645874)
(-0.000439414 0.0018509 0.638441)
(-0.000682814 0.00166927 0.623992)
(-0.000872815 0.00142592 0.60334)
(-0.000990215 0.00115239 0.577629)
(0.00194484 0.00225776 0.780381)
(0.0017162 0.00276836 0.813316)
(0.00134514 0.00322466 0.83964)
(0.000863861 0.00356535 0.858016)
(0.000297864 0.00374918 0.867456)
(-0.000297964 0.00374917 0.867456)
(-0.00086396 0.00356533 0.858016)
(-0.00134524 0.00322464 0.83964)
(-0.00171629 0.00276833 0.813315)
(-0.00194491 0.00225772 0.780381)
(0.00308106 0.00356619 0.966316)
(0.00271166 0.00432807 1.00475)
(0.00212211 0.00500775 1.03528)
(0.00135926 0.00551346 1.05653)
(0.000468156 0.00578542 1.06743)
(-0.000468287 0.00578541 1.06743)
(-0.00135938 0.00551344 1.05653)
(-0.00212224 0.00500772 1.03528)
(-0.00271178 0.00432803 1.00475)
(-0.00308116 0.00356615 0.966316)
(0.00427101 0.0049259 1.13512)
(0.00374049 0.00590733 1.17735)
(0.00291701 0.00677763 1.21067)
(0.00186216 0.00742158 1.23379)
(0.000640348 0.00776644 1.24562)
(-0.000640508 0.00776643 1.24562)
(-0.00186232 0.00742156 1.23379)
(-0.00291716 0.0067776 1.21067)
(-0.00374062 0.00590729 1.17735)
(-0.00427113 0.00492586 1.13512)
(0.00538652 0.00618613 1.28659)
(0.00468625 0.00731549 1.331)
(0.0036367 0.00830732 1.36578)
(0.00231225 0.0090359 1.38983)
(0.000793533 0.00942415 1.40211)
(-0.000793721 0.00942415 1.40211)
(-0.00231244 0.00903588 1.38983)
(-0.00363687 0.00830729 1.36578)
(-0.0046864 0.00731546 1.331)
(-0.00538666 0.00618608 1.28659)
(0.00631152 0.00720986 1.4206)
(0.00544741 0.00838686 1.46573)
(0.00420197 0.00940648 1.50082)
(0.00265899 0.0101485 1.52496)
(0.000910318 0.0105415 1.53725)
(-0.00091053 0.0105415 1.53725)
(-0.00265919 0.0101485 1.52496)
(-0.00420217 0.00940646 1.50081)
(-0.00544759 0.00838683 1.46573)
(-0.00631168 0.00720982 1.4206)
(0.00696297 0.00789471 1.53692)
(0.0059535 0.00900737 1.58172)
(0.00455742 0.00994536 1.61619)
(0.00286673 0.0106198 1.63972)
(0.000978429 0.010974 1.65164)
(-0.000978659 0.010974 1.65164)
(-0.00286695 0.0106197 1.63972)
(-0.00455763 0.00994534 1.61619)
(-0.0059537 0.00900735 1.58172)
(-0.00696314 0.00789469 1.53692)
(0.00730038 0.00827088 1.63513)
(0.00615999 0.00911809 1.6797)
(0.00466122 0.00984368 1.71272)
(0.00290897 0.010356 1.73495)
(0.000988895 0.0106219 1.74612)
(-0.000989136 0.0106219 1.74612)
(-0.00290921 0.010356 1.73495)
(-0.00466144 0.00984368 1.71272)
(-0.00616019 0.00911808 1.6797)
(-0.00730056 0.00827087 1.63513)
(6.92925e-06 1.12582e-05 0.123249)
(2.62267e-06 1.47194e-05 0.129356)
(2.31607e-07 1.56699e-05 0.134279)
(-1.35872e-07 1.5597e-05 0.137735)
(-1.32194e-07 1.54479e-05 0.139516)
(1.22775e-07 1.54471e-05 0.139516)
(1.26694e-07 1.55949e-05 0.137735)
(-2.40492e-07 1.56664e-05 0.134279)
(-2.63142e-06 1.47144e-05 0.129356)
(-6.93646e-06 1.1252e-05 0.123249)
(0.000122795 0.000149903 0.357365)
(0.000101049 0.000187607 0.37406)
(7.53026e-05 0.000216992 0.387504)
(4.76111e-05 0.000237521 0.396927)
(1.62446e-05 0.000248392 0.401779)
(-1.62746e-05 0.00024839 0.401779)
(-4.76402e-05 0.000237515 0.396927)
(-7.53308e-05 0.000216982 0.387504)
(-0.000101076 0.000187594 0.37406)
(-0.000122818 0.000149886 0.357364)
(0.000370915 0.000439926 0.575779)
(0.000319286 0.000546137 0.6014)
(0.000246201 0.000636227 0.621967)
(0.000157228 0.000702185 0.636356)
(5.40375e-05 0.00073757 0.643757)
(-5.40887e-05 0.000737566 0.643757)
(-0.000157278 0.000702176 0.636355)
(-0.000246249 0.000636212 0.621967)
(-0.000319332 0.000546116 0.6014)
(-0.000370954 0.000439901 0.575778)
(0.000739847 0.000867761 0.778096)
(0.000645354 0.00106885 0.810968)
(0.000502498 0.00124415 0.837235)
(0.000321685 0.00137399 0.855571)
(0.000110755 0.00144382 0.864991)
(-0.000110827 0.00144382 0.864991)
(-0.000321756 0.00137397 0.855571)
(-0.000502565 0.00124413 0.837234)
(-0.000645418 0.00106883 0.810968)
(-0.000739903 0.00086773 0.778096)
(0.00119343 0.00139021 0.96398)
(0.00104436 0.00169636 1.00243)
(0.000815048 0.00196568 1.03298)
(0.000521558 0.00216548 1.05424)
(0.000179565 0.00227286 1.06515)
(-0.00017966 0.00227286 1.06515)
(-0.00052165 0.00216547 1.05424)
(-0.000815135 0.00196565 1.03297)
(-0.00104444 0.00169633 1.00243)
(-0.0011935 0.00139018 0.963979)
(0.00168461 0.00195153 1.13317)
(0.00147185 0.00235445 1.17554)
(0.00114716 0.00270885 1.20899)
(0.000732562 0.00297103 1.2322)
(0.000251965 0.00311153 1.24409)
(-0.00025208 0.00311152 1.24409)
(-0.000732674 0.00297102 1.2322)
(-0.00114726 0.00270883 1.20899)
(-0.00147195 0.00235442 1.17554)
(-0.0016847 0.00195149 1.13317)
(0.00216122 0.00249032 1.28545)
(0.00187966 0.00296391 1.33016)
(0.00145978 0.00337791 1.36521)
(0.000929162 0.00368242 1.38946)
(0.000319064 0.0038449 1.40184)
(-0.000319199 0.0038449 1.40184)
(-0.000929293 0.00368241 1.38946)
(-0.0014599 0.00337789 1.36521)
(-0.00187977 0.00296388 1.33016)
(-0.00216132 0.00249029 1.28545)
(0.00257213 0.00294603 1.42064)
(0.00222223 0.00344987 1.46625)
(0.00171686 0.00388541 1.50174)
(0.0010881 0.00420298 1.52619)
(0.000372815 0.00437145 1.53864)
(-0.000372967 0.00437145 1.53864)
(-0.00108825 0.00420297 1.52619)
(-0.001717 0.00388539 1.50174)
(-0.00222236 0.00344985 1.46624)
(-0.00257224 0.002946 1.42064)
(0.00287736 0.00326907 1.5384)
(0.00246478 0.0037553 1.58385)
(0.00189065 0.00416515 1.61887)
(0.00119137 0.00446038 1.64281)
(0.000406982 0.00461567 1.65493)
(-0.000407148 0.00461567 1.65493)
(-0.00119154 0.00446037 1.6428)
(-0.0018908 0.00416513 1.61887)
(-0.00246492 0.00375528 1.58385)
(-0.00287749 0.00326904 1.5384)
(0.00305387 0.00346572 1.6382)
(0.00258227 0.00384627 1.68359)
(0.00195853 0.00417071 1.71728)
(0.00122454 0.00440019 1.73998)
(0.000416653 0.00451946 1.75139)
(-0.000416827 0.00451946 1.75139)
(-0.00122471 0.00440018 1.73998)
(-0.00195869 0.0041707 1.71728)
(-0.00258242 0.00384626 1.68359)
(-0.003054 0.0034657 1.63819)
(-7.11454e-07 -2.12805e-07 0.123096)
(-1.61054e-06 1.5414e-07 0.129195)
(-1.73012e-06 -6.20268e-08 0.134111)
(-1.13487e-06 -3.90817e-07 0.137562)
(-4.1091e-07 -5.79294e-07 0.139341)
(4.04206e-07 -5.79803e-07 0.139341)
(1.1284e-06 -3.92349e-07 0.137562)
(1.72386e-06 -6.44583e-08 0.134111)
(1.60451e-06 1.50603e-07 0.129195)
(7.06582e-07 -2.16984e-07 0.123096)
(3.23873e-05 3.91018e-05 0.356869)
(2.63713e-05 4.98765e-05 0.373539)
(1.96037e-05 5.83153e-05 0.386961)
(1.24792e-05 6.43457e-05 0.396368)
(4.2618e-06 6.75861e-05 0.401212)
(-4.28303e-06 6.75846e-05 0.401212)
(-1.24998e-05 6.43413e-05 0.396368)
(-1.96236e-05 5.83085e-05 0.386961)
(-2.63901e-05 4.98667e-05 0.373539)
(-3.24026e-05 3.90901e-05 0.356869)
(0.000113742 0.000133696 0.574967)
(9.82239e-05 0.000167997 0.600553)
(7.61322e-05 0.000197418 0.621088)
(4.8878e-05 0.000219323 0.635455)
(1.68329e-05 0.000231181 0.642846)
(-1.68691e-05 0.000231179 0.642846)
(-4.8913e-05 0.000219317 0.635455)
(-7.61657e-05 0.000197407 0.621088)
(-9.82559e-05 0.000167982 0.600553)
(-0.000113769 0.000133679 0.574966)
(0.000243146 0.000283092 0.777058)
(0.000213281 0.000352165 0.809901)
(0.000167069 0.000413014 0.836142)
(0.000107471 0.000458709 0.854463)
(3.70802e-05 0.000483471 0.863875)
(-3.71316e-05 0.000483468 0.863875)
(-0.000107521 0.0004587 0.854463)
(-0.000167117 0.000413 0.836142)
(-0.000213325 0.000352146 0.809901)
(-0.000243184 0.000283071 0.777058)
(0.000409841 0.000474333 0.962857)
(0.000360997 0.000583939 1.0013)
(0.000283512 0.000681334 1.03185)
(0.000182282 0.000754496 1.05312)
(6.28937e-05 0.00079408 1.06403)
(-6.296e-05 0.000794077 1.06403)
(-0.000182347 0.000754486 1.05312)
(-0.000283574 0.000681318 1.03185)
(-0.000361054 0.000583918 1.0013)
(-0.000409891 0.000474309 0.962856)
(0.000597371 0.00068788 1.13213)
(0.000525636 0.000836763 1.17455)
(0.000412338 0.000969033 1.20803)
(0.000264561 0.00106803 1.23129)
(9.11971e-05 0.00112142 1.2432)
(-9.12779e-05 0.00112141 1.2432)
(-0.000264639 0.00106802 1.23129)
(-0.000412413 0.000969017 1.20803)
(-0.000525706 0.000836742 1.17454)
(-0.000597432 0.000687855 1.13213)
(0.000785872 0.000900344 1.28467)
(0.000688617 0.00107992 1.32949)
(0.000538307 0.0012385 1.36463)
(0.00034425 0.00135641 1.38896)
(0.000118473 0.00141972 1.40139)
(-0.000118568 0.00141971 1.40139)
(-0.000344342 0.0013564 1.38896)
(-0.000538395 0.00123848 1.36463)
(-0.000688698 0.0010799 1.32949)
(-0.000785944 0.000900319 1.28467)
(0.000954712 0.0010873 1.42028)
(0.000831227 0.00128267 1.46606)
(0.000646368 0.00145327 1.50172)
(0.000411529 0.0015789 1.52629)
(0.000141304 0.00164592 1.53881)
(-0.000141411 0.00164592 1.53881)
(-0.000411633 0.0015789 1.52629)
(-0.000646467 0.00145326 1.50172)
(-0.000831319 0.00128265 1.46606)
(-0.000954794 0.00108728 1.42028)
(0.00108685 0.00122789 1.53859)
(0.000938108 0.00142044 1.58429)
(0.000724024 0.00158419 1.61953)
(0.000458184 0.00170309 1.64363)
(0.000156829 0.00176591 1.65585)
(-0.000156946 0.00176591 1.65585)
(-0.000458298 0.00170308 1.64363)
(-0.000724133 0.00158418 1.61953)
(-0.000938209 0.00142042 1.58429)
(-0.00108695 0.00122788 1.53859)
(0.00117115 0.0013234 1.63901)
(0.00099678 0.00147837 1.68473)
(0.000760206 0.00161009 1.7187)
(0.000477091 0.00170373 1.7416)
(0.00016261 0.00175256 1.75311)
(-0.000162733 0.00175256 1.75311)
(-0.000477213 0.00170373 1.7416)
(-0.000760322 0.00161009 1.71869)
(-0.000996888 0.00147836 1.68473)
(-0.00117125 0.00132338 1.639)
(-1.67402e-08 6.85233e-07 0.123076)
(-8.00454e-07 1.02992e-06 0.129173)
(-9.89806e-07 8.68515e-07 0.134086)
(-7.24962e-07 5.93914e-07 0.137535)
(-2.70612e-07 4.1704e-07 0.139313)
(2.65993e-07 4.16684e-07 0.139313)
(7.20489e-07 5.92862e-07 0.137535)
(9.85591e-07 8.66808e-07 0.134086)
(7.9655e-07 1.02761e-06 0.129173)
(1.35089e-08 6.82559e-07 0.123076)
(8.92934e-06 1.19706e-05 0.356764)
(6.0525e-06 1.54923e-05 0.373425)
(3.8683e-06 1.76364e-05 0.386836)
(2.25198e-06 1.89385e-05 0.396235)
(7.28476e-07 1.95829e-05 0.401076)
(-7.43086e-07 1.95818e-05 0.401076)
(-2.26615e-06 1.89355e-05 0.396235)
(-3.88167e-06 1.76316e-05 0.386836)
(-6.0648e-06 1.54858e-05 0.373424)