/*--------------------------------*- C++ -*----------------------------------*\
| =========                 |                                                 |
| \\      /  F ield         | OpenFOAM: The Open Source CFD Toolbox           |
|  \\    /   O peration     | Version:  2106                                  |
|   \\  /    A nd           | Website:  www.openfoam.com                      |
|    \\/     M anipulation  |                                                 |
\*---------------------------------------------------------------------------*/
FoamFile
{
    version     2.0;
    format      ascii;
    arch        "LSB;label=32;scalar=64";
    class       volVectorField;
    location    "0.9";
    object      U;
}
// * * * * * * * * * * * * * * * * * * * * * * * * * * * * * * * * * * * * * //

dimensions      [0 1 -1 0 0 0 0];

internalField   nonuniform List<vector> 
10000
(
(0.0630548 0.0742999 0.34785)
(0.0537782 0.0844993 0.362445)
(0.0401624 0.0937224 0.373899)
(0.0249153 0.100155 0.38181)
(0.00844367 0.103481 0.38583)
(-0.00844368 0.103481 0.38583)
(-0.0249153 0.100155 0.38181)
(-0.0401624 0.0937224 0.373899)
(-0.0537783 0.0844993 0.362445)
(-0.0630548 0.0742999 0.34785)
(0.173413 0.205735 0.733606)
(0.146383 0.233191 0.753409)
(0.109283 0.25734 0.768163)
(0.067614 0.274056 0.778138)
(0.0228871 0.282678 0.783126)
(-0.0228872 0.282678 0.783126)
(-0.067614 0.274056 0.778138)
(-0.109283 0.25734 0.768163)
(-0.146383 0.233191 0.753409)
(-0.173413 0.205735 0.733606)
(0.224383 0.266434 0.931051)
(0.187287 0.298391 0.947001)
(0.138929 0.326297 0.958151)
(0.0855305 0.345388 0.965511)
(0.0288807 0.35517 0.96912)
(-0.0288808 0.35517 0.96912)
(-0.0855306 0.345388 0.965511)
(-0.138929 0.326297 0.958151)
(-0.187287 0.298391 0.947001)
(-0.224383 0.266434 0.931051)
(0.23952 0.28395 1.03094)
(0.197963 0.314063 1.04152)
(0.145941 0.340411 1.04824)
(0.0894318 0.358234 1.05254)
(0.0301297 0.367308 1.05459)
(-0.0301297 0.367308 1.05459)
(-0.0894319 0.358234 1.05254)
(-0.145941 0.340411 1.04824)
(-0.197963 0.314063 1.04152)
(-0.23952 0.28395 1.03094)
(0.237567 0.281135 1.07966)
(0.194737 0.307337 1.08566)
(0.142808 0.330403 1.08881)
(0.0871608 0.345871 1.09071)
(0.029308 0.353698 1.09156)
(-0.029308 0.353698 1.09156)
(-0.0871609 0.345871 1.09071)
(-0.142808 0.330403 1.08881)
(-0.194737 0.307337 1.08566)
(-0.237567 0.281135 1.07966)
(0.226475 0.267521 1.1009)
(0.184241 0.289095 1.1035)
(0.134471 0.30824 1.10416)
(0.0817696 0.321004 1.10441)
(0.0274469 0.327426 1.10445)
(-0.027447 0.327426 1.10445)
(-0.0817697 0.321004 1.10441)
(-0.134471 0.30824 1.10416)
(-0.184241 0.289095 1.1035)
(-0.226475 0.267521 1.1009)
(0.210014 0.247443 1.10756)
(0.169556 0.264148 1.10784)
(0.123198 0.27912 1.10692)
(0.0746526 0.289083 1.10615)
(0.025016 0.294073 1.10571)
(-0.0250161 0.294073 1.10571)
(-0.0746527 0.289083 1.10615)
(-0.123198 0.27912 1.10692)
(-0.169556 0.264148 1.10784)
(-0.210014 0.247443 1.10756)
(0.190531 0.223647 1.10686)
(0.152642 0.235527 1.10568)
(0.110441 0.246313 1.10386)
(0.0667044 0.253526 1.10254)
(0.0223172 0.25714 1.10185)
(-0.0223173 0.25714 1.10185)
(-0.0667045 0.253526 1.10254)
(-0.110441 0.246313 1.10386)
(-0.152642 0.235527 1.10568)
(-0.190531 0.223647 1.10686)
(0.169572 0.197934 1.10285)
(0.134881 0.205177 1.10077)
(0.0971949 0.211905 1.09853)
(0.0585205 0.216535 1.09697)
(0.0195493 0.218875 1.09618)
(-0.0195495 0.218875 1.09618)
(-0.0585207 0.216535 1.09697)
(-0.097195 0.211905 1.09853)
(-0.134881 0.205177 1.10077)
(-0.169572 0.197934 1.10285)
(0.148306 0.171967 1.09775)
(0.117482 0.173073 1.09521)
(0.0840712 0.176377 1.09283)
(0.0504322 0.178784 1.09123)
(0.0168175 0.180022 1.09043)
(-0.0168176 0.180022 1.09043)
(-0.0504324 0.178784 1.09123)
(-0.0840713 0.176377 1.09283)
(-0.117482 0.173073 1.09521)
(-0.148306 0.171967 1.09775)
(0.0112848 0.0144151 0.26864)
(0.00948083 0.0177321 0.280999)
(0.00715883 0.0203966 0.29112)
(0.00453176 0.0222233 0.298165)
(0.00155054 0.023175 0.301771)
(-0.00155055 0.023175 0.301771)
(-0.00453177 0.0222233 0.298165)
(-0.00715884 0.0203966 0.29112)
(-0.00948084 0.0177321 0.280999)
(-0.0112849 0.014415 0.26864)
(0.0548529 0.0663692 0.634507)
(0.0471019 0.0798508 0.656625)
(0.0360484 0.0914029 0.674363)
(0.02279 0.0995883 0.686562)
(0.00779892 0.103885 0.692754)
(-0.00779897 0.103885 0.692754)
(-0.02279 0.0995883 0.686562)
(-0.0360484 0.0914028 0.674363)
(-0.0471019 0.0798508 0.656625)
(-0.0548529 0.0663692 0.634507)
(0.0985677 0.117732 0.883415)
(0.0840961 0.139241 0.907424)
(0.0640225 0.157699 0.926256)
(0.040233 0.170726 0.939051)
(0.0137273 0.17753 0.945494)
(-0.0137273 0.17753 0.945494)
(-0.0402331 0.170726 0.939051)
(-0.0640225 0.157699 0.926256)
(-0.0840962 0.139241 0.907424)
(-0.0985678 0.117732 0.883415)
(0.13494 0.15999 1.05249)
(0.114151 0.186331 1.07466)
(0.0863453 0.208829 1.09163)
(0.0539538 0.224595 1.10302)
(0.0183565 0.232782 1.1087)
(-0.0183566 0.232782 1.1087)
(-0.0539539 0.224595 1.10302)
(-0.0863454 0.208829 1.09163)
(-0.114151 0.186331 1.07466)
(-0.13494 0.15999 1.05249)
(0.160984 0.189784 1.16642)
(0.135019 0.217877 1.18518)
(0.101491 0.24171 1.19915)
(0.0630916 0.258291 1.20841)
(0.0214104 0.266855 1.21299)
(-0.0214105 0.266855 1.21299)
(-0.0630918 0.258291 1.20841)
(-0.101491 0.24171 1.19915)
(-0.13502 0.217877 1.18518)
(-0.160984 0.189784 1.16642)
(0.176746 0.207289 1.24204)
(0.146987 0.234627 1.25698)
(0.109822 0.257618 1.26778)
(0.0679447 0.273506 1.27483)
(0.0230025 0.281669 1.27829)
(-0.0230027 0.281669 1.27829)
(-0.0679449 0.273506 1.27483)
(-0.109822 0.257618 1.26778)
(-0.146987 0.234627 1.25698)
(-0.176746 0.207289 1.24204)
(0.183292 0.213858 1.29129)
(0.15113 0.238526 1.30261)
(0.112257 0.259029 1.31052)
(0.0691382 0.273112 1.3156)
(0.0233541 0.280314 1.31806)
(-0.0233543 0.280314 1.31806)
(-0.0691384 0.273112 1.3156)
(-0.112257 0.259029 1.31052)
(-0.15113 0.238526 1.30261)
(-0.183292 0.213858 1.29129)
(0.181973 0.211135 1.32257)
(0.148745 0.231742 1.33077)
(0.109859 0.248593 1.33628)
(0.0673736 0.260112 1.33975)
(0.0227097 0.265984 1.34142)
(-0.02271 0.265984 1.34142)
(-0.0673739 0.260112 1.33975)
(-0.109859 0.248593 1.33628)
(-0.148745 0.231742 1.33077)
(-0.181973 0.211135 1.32257)
(0.174259 0.200805 1.34176)
(0.14126 0.216412 1.34746)
(0.103741 0.228812 1.35112)
(0.0633499 0.237307 1.35336)
(0.0213082 0.241634 1.35441)
(-0.0213084 0.241634 1.35441)
(-0.0633502 0.237307 1.35336)
(-0.103741 0.228812 1.35112)
(-0.141261 0.216412 1.34746)
(-0.174259 0.200805 1.34176)
(0.161728 0.185699 1.35302)
(0.130233 0.193693 1.35687)
(0.0948595 0.201291 1.35915)
(0.0576348 0.206532 1.36048)
(0.0193383 0.209199 1.36108)
(-0.0193386 0.209199 1.36108)
(-0.0576351 0.206532 1.36048)
(-0.0948598 0.201291 1.35915)
(-0.130233 0.193693 1.35687)
(-0.161728 0.185699 1.35302)
(0.00113127 0.00126342 0.15888)
(0.00114246 0.00161339 0.167245)
(0.00089059 0.00202491 0.17423)
(0.000596149 0.00232973 0.179174)
(0.000207732 0.00249865 0.181734)
(-0.000207749 0.00249864 0.181734)
(-0.000596165 0.00232973 0.179174)
(-0.000890605 0.00202491 0.17423)
(-0.00114247 0.00161338 0.167245)
(-0.00113128 0.00126341 0.15888)
(0.0181659 0.0210795 0.445118)
(0.0163366 0.0257169 0.46548)
(0.0127858 0.0300809 0.482203)
(0.00821179 0.0333041 0.493939)
(0.00282961 0.0350357 0.499981)
(-0.00282967 0.0350357 0.499981)
(-0.00821184 0.0333041 0.493939)
(-0.0127858 0.0300809 0.482203)
(-0.0163367 0.0257169 0.46548)
(-0.0181659 0.0210794 0.445118)
(0.0414092 0.0481997 0.690613)
(0.0365728 0.0579083 0.718408)
(0.0284132 0.0667637 0.74087)
(0.0180996 0.0732391 0.756504)
(0.0062144 0.0766875 0.764511)
(-0.0062145 0.0766875 0.764511)
(-0.0180997 0.073239 0.756504)
(-0.0284132 0.0667637 0.74087)
(-0.0365728 0.0579083 0.718408)
(-0.0414092 0.0481996 0.690613)
(0.0664875 0.0774519 0.894827)
(0.0579529 0.0917484 0.926252)
(0.0446911 0.104539 0.951225)
(0.0282868 0.113794 0.968462)
(0.00968273 0.118687 0.977244)
(-0.00968286 0.118687 0.977244)
(-0.0282869 0.113794 0.968462)
(-0.0446912 0.104539 0.951225)
(-0.057953 0.0917484 0.926252)
(-0.0664875 0.0774519 0.894827)
(0.0888923 0.103434 1.06122)
(0.0766031 0.120838 1.09347)
(0.0586548 0.136181 1.11866)
(0.0369164 0.147174 1.1359)
(0.0126024 0.152949 1.14464)
(-0.0126026 0.152949 1.14464)
(-0.0369166 0.147174 1.1359)
(-0.058655 0.136181 1.11866)
(-0.0766032 0.120838 1.09347)
(-0.0888925 0.103433 1.06122)
(0.106363 0.123442 1.19472)
(0.0906979 0.14219 1.2259)
(0.0689724 0.15849 1.24984)
(0.0431844 0.170067 1.26609)
(0.0147048 0.176112 1.27429)
(-0.014705 0.176112 1.27429)
(-0.0431846 0.170067 1.26609)
(-0.0689726 0.15849 1.24984)
(-0.0906981 0.14219 1.2259)
(-0.106363 0.123442 1.19472)
(0.118042 0.136503 1.30052)
(0.0996354 0.154893 1.32946)
(0.0752612 0.170645 1.35133)
(0.0468874 0.181743 1.36605)
(0.0159267 0.187506 1.37344)
(-0.015927 0.187506 1.37344)
(-0.0468876 0.181743 1.36605)
(-0.0752614 0.170645 1.35133)
(-0.0996357 0.154893 1.32946)
(-0.118042 0.136503 1.30052)
(0.123803 0.142504 1.38342)
(0.103448 0.159047 1.40954)
(0.0776231 0.172968 1.42897)
(0.048124 0.182702 1.44196)
(0.0163074 0.187733 1.44844)
(-0.0163077 0.187733 1.44844)
(-0.0481243 0.182702 1.44196)
(-0.0776234 0.172968 1.42897)
(-0.103448 0.159047 1.40954)
(-0.123803 0.142504 1.38342)
(0.124049 0.141885 1.44757)
(0.102632 0.155393 1.47074)
(0.0764767 0.166428 1.48772)
(0.0471694 0.174112 1.49896)
(0.015943 0.178066 1.50454)
(-0.0159434 0.178066 1.50454)
(-0.0471697 0.174112 1.49896)
(-0.076477 0.166428 1.48772)
(-0.102632 0.155393 1.47074)
(-0.124049 0.141885 1.44757)
(0.119603 0.136474 1.49633)
(0.0979882 0.144594 1.51706)
(0.0722971 0.151938 1.53169)
(0.0443149 0.157025 1.54122)
(0.0149326 0.159628 1.54592)
(-0.014933 0.159628 1.54592)
(-0.0443152 0.157025 1.54122)
(-0.0722974 0.151938 1.53169)
(-0.0979885 0.144594 1.51706)
(-0.119603 0.136474 1.49633)
(0.00071916 0.000944447 0.13897)
(0.000562168 0.0011842 0.14583)
(0.000385035 0.00135424 0.151416)
(0.000238804 0.00145489 0.155337)
(7.99692e-05 0.00150528 0.15736)
(-7.99849e-05 0.00150528 0.15736)
(-0.000238819 0.00145489 0.155337)
(-0.000385049 0.00135423 0.151416)
(-0.000562181 0.00118419 0.14583)
(-0.00071917 0.000944438 0.13897)
(0.007101 0.00849048 0.398494)
(0.00616653 0.0104653 0.4167)
(0.00474218 0.0121742 0.43144)
(0.00302558 0.0134011 0.441756)
(0.0010391 0.0140539 0.447065)
(-0.00103915 0.0140539 0.447065)
(-0.00302563 0.0134011 0.441756)
(-0.00474222 0.0121742 0.43144)
(-0.00616657 0.0104653 0.4167)
(-0.00710103 0.00849045 0.398493)
(0.0174167 0.0205642 0.63345)
(0.0151942 0.0250384 0.660329)
(0.0117596 0.0289653 0.68192)
(0.00749205 0.0318164 0.69697)
(0.00257294 0.0333332 0.704694)
(-0.00257303 0.0333332 0.704694)
(-0.00749214 0.0318164 0.696969)
(-0.0117597 0.0289652 0.68192)
(-0.0151943 0.0250384 0.660328)
(-0.0174168 0.0205641 0.63345)
(0.0298844 0.0350853 0.841909)
(0.0259859 0.0422084 0.874755)
(0.0200858 0.0484595 0.900893)
(0.0127561 0.0529935 0.919022)
(0.00437458 0.0553981 0.928298)
(-0.00437471 0.0553981 0.928298)
(-0.0127562 0.0529935 0.919022)
(-0.0200859 0.0484594 0.900893)
(-0.025986 0.0422084 0.874755)
(-0.0298845 0.0350853 0.841909)
(0.0424356 0.0495985 1.02382)
(0.0366723 0.0589155 1.0602)
(0.0282321 0.0670455 1.08884)
(0.0178587 0.072913 1.1086)
(0.00611286 0.0760117 1.11868)
(-0.00611303 0.0760117 1.11868)
(-0.0178589 0.072913 1.1086)
(-0.0282323 0.0670455 1.08884)
(-0.0366725 0.0589155 1.0602)
(-0.0424357 0.0495985 1.02382)
(0.0535661 0.0623307 1.18037)
(0.0459401 0.0730363 1.21823)
(0.0351805 0.0822909 1.24771)
(0.0221568 0.088926 1.26794)
(0.0075678 0.0924131 1.27822)
(-0.00756801 0.092413 1.27822)
(-0.022157 0.088926 1.26794)
(-0.0351807 0.0822909 1.24771)
(-0.0459403 0.0730363 1.21823)
(-0.0535662 0.0623307 1.18037)
(0.0622814 0.0721316 1.31335)
(0.0529594 0.0832637 1.35108)
(0.0403133 0.092765 1.38013)
(0.0252719 0.0995263 1.39996)
(0.00861195 0.103062 1.41)
(-0.0086122 0.103062 1.41)
(-0.0252721 0.0995262 1.39996)
(-0.0403135 0.092765 1.38013)
(-0.0529596 0.0832637 1.35108)
(-0.0622816 0.0721315 1.31335)
(0.0679845 0.0783127 1.42484)
(0.0572786 0.0888886 1.46125)
(0.043321 0.0977672 1.48899)
(0.0270259 0.104034 1.50781)
(0.00918734 0.107294 1.51731)
(-0.00918763 0.107294 1.51731)
(-0.0270262 0.104034 1.50781)
(-0.0433213 0.0977672 1.48899)
(-0.0572788 0.0888886 1.46125)
(-0.0679847 0.0783127 1.42484)
(0.0704777 0.0806082 1.51681)
(0.0588131 0.0897404 1.55123)
(0.0441654 0.0971919 1.57713)
(0.0274039 0.102414 1.59456)
(0.00929047 0.105115 1.6033)
(-0.00929078 0.105115 1.6033)
(-0.0274042 0.102414 1.59455)
(-0.0441657 0.0971919 1.57713)
(-0.0588133 0.0897404 1.55122)
(-0.070478 0.0806081 1.51681)
(0.069943 0.0798133 1.59096)
(0.0577544 0.0858828 1.62365)
(0.0429289 0.0911578 1.64735)
(0.0264595 0.0948193 1.66307)
(0.00894053 0.0966987 1.67089)
(-0.00894087 0.0966987 1.67089)
(-0.0264598 0.0948193 1.66307)
(-0.0429292 0.0911578 1.64735)
(-0.0577546 0.0858828 1.62365)
(-0.0699433 0.0798133 1.59096)
(0.000131689 0.000144068 0.12795)
(0.000121971 0.000188818 0.134341)
(9.01264e-05 0.000234649 0.139536)
(6.16532e-05 0.000266773 0.143189)
(2.12927e-05 0.000284986 0.145074)
(-2.13062e-05 0.000284985 0.145074)
(-6.16662e-05 0.00026677 0.143189)
(-9.01385e-05 0.000234644 0.139536)
(-0.000121982 0.000188811 0.134341)
(-0.000131698 0.00014406 0.12795)
(0.00253438 0.00293156 0.371061)
(0.00226686 0.00363428 0.388444)
(0.00177558 0.00428146 0.402526)
(0.00114759 0.00476299 0.412407)
(0.000396257 0.00502438 0.417499)
(-0.000396301 0.00502438 0.417499)
(-0.00114763 0.00476298 0.412407)
(-0.00177562 0.00428144 0.402526)
(-0.00226689 0.00363426 0.388444)
(-0.00253441 0.00293154 0.371061)
(0.00690367 0.00800887 0.596463)
(0.00613364 0.00981821 0.622848)
(0.00480777 0.0114613 0.64411)
(0.00308969 0.0126837 0.658988)
(0.00106526 0.0133426 0.666642)
(-0.00106533 0.0133426 0.666642)
(-0.00308976 0.0126837 0.658988)
(-0.00480784 0.0114613 0.64411)
(-0.00613371 0.00981818 0.622848)
(-0.00690373 0.00800884 0.596463)
(0.0126709 0.0147017 0.802641)
(0.011184 0.0178269 0.835953)
(0.00874108 0.0206386 0.862611)
(0.00559355 0.0227199 0.881202)
(0.00192519 0.0238361 0.890745)
(-0.00192531 0.0238361 0.890745)
(-0.00559366 0.0227199 0.881201)
(-0.00874119 0.0206386 0.862611)
(-0.0111841 0.0178268 0.835953)
(-0.0126709 0.0147016 0.802641)
(0.0189529 0.0219549 0.988854)
(0.0166082 0.0263093 1.02706)
(0.0129225 0.0301908 1.05739)
(0.00823452 0.0330449 1.07846)
(0.00282866 0.034568 1.08926)
(-0.00282881 0.034568 1.08926)
(-0.00823466 0.0330449 1.07846)
(-0.0129226 0.0301908 1.05739)
(-0.0166083 0.0263093 1.02706)
(-0.018953 0.0219549 0.988853)
(0.024973 0.0288468 1.15498)
(0.0217101 0.0341201 1.1962)
(0.0168009 0.0387704 1.22863)
(0.0106586 0.0421644 1.25107)
(0.00365356 0.0439663 1.26253)
(-0.00365375 0.0439663 1.26253)
(-0.0106588 0.0421644 1.25107)
(-0.016801 0.0387704 1.22863)
(-0.0217102 0.0341201 1.1962)
(-0.0249731 0.0288467 1.15498)
(0.0301098 0.0346495 1.30132)
(0.025949 0.0403866 1.34387)
(0.0199588 0.0453803 1.37706)
(0.0126026 0.0489953 1.39991)
(0.00430992 0.0509043 1.41155)
(-0.00431014 0.0509043 1.41155)
(-0.0126028 0.0489953 1.39991)
(-0.019959 0.0453803 1.37706)
(-0.0259491 0.0403866 1.34387)
(-0.03011 0.0346494 1.30131)
(0.0339052 0.0388263 1.42842)
(0.0289477 0.044502 1.47091)
(0.0221169 0.0493627 1.50375)
(0.0138948 0.0528492 1.52625)
(0.00473982 0.0546795 1.53767)
(-0.00474007 0.0546795 1.53767)
(-0.0138951 0.0528491 1.52625)
(-0.0221171 0.0493627 1.50375)
(-0.0289479 0.044502 1.47091)
(-0.0339054 0.0388263 1.42842)
(0.0361121 0.0410682 1.53687)
(0.0305237 0.0461658 1.57835)
(0.0231417 0.0504077 1.61005)
(0.0144537 0.0534201 1.63158)
(0.00491582 0.0549903 1.64245)
(-0.00491609 0.0549903 1.64245)
(-0.0144539 0.0534201 1.63158)
(-0.023142 0.0504077 1.61005)
(-0.030524 0.0461658 1.57835)
(-0.0361123 0.0410682 1.53687)
(0.0367012 0.0416849 1.62706)
(0.0306425 0.0452878 1.66767)
(0.0229729 0.0484047 1.69754)
(0.0142423 0.0505863 1.71754)
(0.00482601 0.0517123 1.72756)
(-0.00482631 0.0517123 1.72756)
(-0.0142426 0.0505863 1.71754)
(-0.0229732 0.0484047 1.69754)
(-0.0306428 0.0452878 1.66767)
(-0.0367014 0.0416849 1.62706)
(8.03263e-05 0.000108388 0.124957)
(5.6266e-05 0.000137493 0.131148)
(3.45159e-05 0.000154358 0.136149)
(2.11231e-05 0.000162702 0.139659)
(6.86341e-06 0.000166699 0.141469)
(-6.87424e-06 0.000166699 0.141469)
(-2.11338e-05 0.0001627 0.139659)
(-3.45254e-05 0.000154355 0.136149)
(-5.62748e-05 0.000137488 0.131148)
(-8.03336e-05 0.000108382 0.124957)
(0.00104915 0.00125282 0.362492)
(0.000901287 0.00155389 0.379425)
(0.000689336 0.00180732 0.393085)
(0.00044025 0.00198925 0.402661)
(0.000151118 0.00208656 0.407593)
(-0.000151155 0.00208655 0.407593)
(-0.000440286 0.00198925 0.402661)
(-0.000689369 0.00180731 0.393085)
(-0.000901316 0.00155388 0.379425)
(-0.00104917 0.0012528 0.362492)
(0.00289157 0.00340344 0.583943)
(0.00252547 0.00418635 0.609894)
(0.00196094 0.00486953 0.630753)
(0.00125468 0.00537104 0.645348)
(0.000431718 0.00564004 0.652857)
(-0.000431782 0.00564004 0.652857)
(-0.00125475 0.00537103 0.645348)
(-0.001961 0.00486952 0.630753)
(-0.00252553 0.00418633 0.609894)
(-0.00289162 0.00340341 0.583943)
(0.00542041 0.00634051 0.78858)
(0.00474738 0.00772994 0.821778)
(0.0036975 0.00895457 0.848327)
(0.00236364 0.00985711 0.866857)
(0.000813235 0.0103407 0.876376)
(-0.000813329 0.0103407 0.876376)
(-0.00236373 0.0098571 0.866857)
(-0.00369759 0.00895455 0.848327)
(-0.00474746 0.00772991 0.821778)
(-0.00542048 0.00634048 0.78858)
(0.00830747 0.00967279 0.975905)
(0.00725956 0.0116711 1.01458)
(0.00564704 0.0134328 1.04532)
(0.00360139 0.0147284 1.06671)
(0.00123781 0.0154207 1.07768)
(-0.00123793 0.0154207 1.07768)
(-0.00360151 0.0147284 1.06671)
(-0.00564715 0.0134327 1.04532)
(-0.00725966 0.0116711 1.01458)
(-0.00830755 0.00967276 0.975905)
(0.0112183 0.0130043 1.14564)
(0.0097547 0.0155031 1.18809)
(0.00756142 0.0176941 1.22157)
(0.00480634 0.0192975 1.24481)
(0.00164932 0.0201509 1.2567)
(-0.00164947 0.0201509 1.2567)
(-0.00480649 0.0192975 1.24481)
(-0.00756156 0.0176941 1.22157)
(-0.00975483 0.0155031 1.18808)
(-0.0112184 0.0130042 1.14564)
(0.013844 0.0159728 1.29769)
(0.0119562 0.0187768 1.34229)
(0.00922217 0.0212114 1.37721)
(0.00583836 0.0229811 1.40135)
(0.00199944 0.0239185 1.41367)
(-0.00199962 0.0239185 1.41367)
(-0.00583853 0.0229811 1.40135)
(-0.00922234 0.0212114 1.37721)
(-0.0119564 0.0187767 1.34229)
(-0.0138441 0.0159727 1.29769)
(0.0159237 0.018271 1.43205)
(0.0136408 0.0211289 1.47735)
(0.0104585 0.0235761 1.51256)
(0.00658999 0.0253394 1.53679)
(0.00225147 0.0262681 1.54912)
(-0.00225168 0.0262681 1.54912)
(-0.0065902 0.0253393 1.53679)
(-0.0104587 0.0235761 1.51256)
(-0.013641 0.0211288 1.47735)
(-0.0159238 0.018271 1.43205)
(0.0172853 0.0196841 1.54861)
(0.0146695 0.0223291 1.59359)
(0.0111641 0.0245342 1.62819)
(0.00699419 0.0261063 1.65181)
(0.00238252 0.0269281 1.66376)
(-0.00238275 0.0269281 1.66376)
(-0.00699441 0.0261063 1.65181)
(-0.0111643 0.0245342 1.62819)
(-0.0146697 0.0223291 1.59359)
(-0.0172855 0.0196841 1.54861)
(0.0178635 0.0203123 1.64707)
(0.014974 0.0222651 1.69184)
(0.0112699 0.0239396 1.72498)
(0.00700777 0.0251151 1.74729)
(0.00237814 0.0257231 1.75849)
(-0.00237839 0.0257231 1.75849)
(-0.00700801 0.0251151 1.74729)
(-0.0112702 0.0239396 1.72498)
(-0.0149742 0.0222651 1.69184)
(-0.0178637 0.0203123 1.64707)
(1.24017e-05 1.52639e-05 0.123446)
(8.44622e-06 2.0853e-05 0.129568)
(4.7455e-06 2.45217e-05 0.134511)
(3.49477e-06 2.66262e-05 0.137981)
(1.17235e-06 2.78483e-05 0.13977)
(-1.18059e-06 2.78477e-05 0.13977)
(-3.50277e-06 2.66243e-05 0.137981)
(-4.75293e-06 2.45188e-05 0.134511)
(-8.45305e-06 2.0849e-05 0.129568)
(-1.24073e-05 1.52593e-05 0.123446)
(0.000364964 0.000426472 0.358221)
(0.000318628 0.000532334 0.374982)
(0.000246806 0.00062468 0.388497)
(0.000159328 0.000692923 0.397973)
(5.49474e-05 0.000730007 0.402855)
(-5.49753e-05 0.000730005 0.402855)
(-0.000159355 0.000692918 0.397973)
(-0.000246831 0.000624672 0.388497)
(-0.00031865 0.000532323 0.374982)
(-0.000364983 0.00042646 0.358221)
(0.00108982 0.00126803 0.57756)
(0.000961278 0.00156839 0.603323)
(0.0007525 0.00183557 0.624028)
(0.000484455 0.00203514 0.638523)
(0.00016717 0.00214317 0.645983)
(-0.00016722 0.00214317 0.645983)
(-0.000484502 0.00203513 0.638523)
(-0.000752544 0.00183556 0.624028)
(-0.000961318 0.00156837 0.603323)
(-0.00108985 0.00126801 0.57756)
(0.00213686 0.00247972 0.781062)
(0.00188688 0.00304026 0.814179)
(0.00147974 0.00354122 0.840676)
(0.000950689 0.00391549 0.859186)
(0.000327883 0.00411753 0.8687)
(-0.000327955 0.00411753 0.8687)
(-0.000950759 0.00391548 0.859186)
(-0.00147981 0.0035412 0.840676)
(-0.00188694 0.00304024 0.814179)
(-0.00213691 0.0024797 0.781062)
(0.00338402 0.00391516 0.968401)
(0.00298033 0.00475234 1.00723)
(0.00233368 0.00549936 1.03813)
(0.00149539 0.00605556 1.05966)
(0.000515167 0.0063548 1.07071)
(-0.000515263 0.0063548 1.07071)
(-0.00149548 0.00605555 1.05966)
(-0.00233376 0.00549934 1.03813)
(-0.00298041 0.00475232 1.00723)
(-0.00338409 0.00391514 0.9684)
(0.00469277 0.00540984 1.13933)
(0.00411288 0.00649009 1.18225)
(0.00320934 0.00744838 1.21619)
(0.0020497 0.00815796 1.23978)
(0.000705011 0.00853816 1.25186)
(-0.00070513 0.00853816 1.25186)
(-0.00204981 0.00815795 1.23978)
(-0.00320945 0.00744836 1.21619)
(-0.00411298 0.00649007 1.18225)
(-0.00469285 0.00540982 1.13933)
(0.0059234 0.00679951 1.29363)
(0.00515738 0.00804531 1.3391)
(0.00400484 0.00913992 1.37481)
(0.00254751 0.00994464 1.39954)
(0.00087449 0.0103737 1.41219)
(-0.000874632 0.0103737 1.41219)
(-0.00254764 0.00994463 1.39954)
(-0.00400497 0.00913991 1.37481)
(-0.0051575 0.00804529 1.3391)
(-0.0059235 0.00679948 1.29363)
(0.0069483 0.00793356 1.4311)
(0.00600182 0.00923519 1.47769)
(0.00463252 0.0103634 1.51402)
(0.00293277 0.0111851 1.53908)
(0.0010043 0.0116205 1.55185)
(-0.00100446 0.0116205 1.55185)
(-0.00293293 0.0111851 1.53908)
(-0.00463267 0.0103634 1.51402)
(-0.00600196 0.00923518 1.47769)
(-0.00694842 0.00793355 1.4311)
(0.00767501 0.00869808 1.55136)
(0.00656717 0.00993224 1.59801)
(0.00503001 0.010973 1.63403)
(0.00316528 0.0117217 1.65868)
(0.00108056 0.012115 1.67117)
(-0.00108074 0.012115 1.67117)
(-0.00316545 0.0117217 1.65868)
(-0.00503018 0.010973 1.63403)
(-0.00656732 0.00993223 1.59801)
(-0.00767514 0.00869807 1.55136)
(0.00805645 0.00912601 1.65377)
(0.00680166 0.0100688 1.70058)
(0.00514903 0.0108759 1.73537)
(0.00321445 0.0114458 1.75884)
(0.00109294 0.0117417 1.77065)
(-0.00109313 0.0117417 1.77065)
(-0.00321463 0.0114458 1.75884)
(-0.00514921 0.0108759 1.73537)
(-0.00680182 0.0100688 1.70058)
(-0.00805659 0.00912601 1.65377)
(7.82798e-06 1.24502e-05 0.123045)
(3.24934e-06 1.624e-05 0.12914)
(6.4393e-07 1.73654e-05 0.134056)
(1.56814e-07 1.73926e-05 0.137506)
(-2.92537e-08 1.73035e-05 0.139285)
(2.32208e-08 1.7303e-05 0.139285)
(-1.62658e-07 1.73912e-05 0.137506)
(-6.49365e-07 1.73633e-05 0.134056)
(-3.2544e-06 1.62371e-05 0.12914)
(-7.83207e-06 1.24468e-05 0.123045)
(0.000140352 0.000170541 0.356913)
(0.000116353 0.000213229 0.373595)
(8.72101e-05 0.000246843 0.387035)
(5.53331e-05 0.000270513 0.396457)
(1.89201e-05 0.000283103 0.40131)
(-1.89407e-05 0.000283101 0.40131)
(-5.5353e-05 0.000270509 0.396457)
(-8.72286e-05 0.000246837 0.387035)
(-0.00011637 0.000213221 0.373595)
(-0.000140366 0.000170531 0.356912)
(0.000422067 0.000499415 0.575459)
(0.000364496 0.000619608 0.601122)
(0.000281727 0.000722022 0.621736)
(0.000180189 0.000797244 0.636165)
(6.19848e-05 0.000837667 0.64359)
(-6.20214e-05 0.000837665 0.64359)
(-0.000180224 0.000797238 0.636165)
(-0.00028176 0.000722013 0.621736)
(-0.000364526 0.000619596 0.601122)
(-0.000422092 0.000499401 0.575459)
(0.000839943 0.000983608 0.778472)
(0.000734124 0.00121111 0.811521)
(0.000572449 0.00140996 0.837955)
(0.000366818 0.00155753 0.856424)
(0.000126363 0.00163699 0.865917)
(-0.000126417 0.00163699 0.865917)
(-0.00036687 0.00155752 0.856424)
(-0.000572498 0.00140995 0.837955)
(-0.000734168 0.0012111 0.811521)
(-0.000839981 0.000983591 0.778472)
(0.00135332 0.0015745 0.965749)
(0.00118606 0.00192102 1.0046)
(0.000926668 0.00222641 1.03551)
(0.000593428 0.00245332 1.05706)
(0.000204395 0.00257537 1.06813)
(-0.000204466 0.00257537 1.06813)
(-0.000593497 0.00245332 1.05706)
(-0.000926733 0.0022264 1.03551)
(-0.00118612 0.001921 1.0046)
(-0.00135337 0.00157448 0.965749)
(0.00190958 0.00220972 1.1371)
(0.00167056 0.00266627 1.18019)
(0.00130329 0.00306844 1.21427)
(0.000832815 0.00336633 1.23797)
(0.000286552 0.00352609 1.25012)
(-0.000286642 0.00352608 1.25012)
(-0.000832902 0.00336632 1.23797)
(-0.00130337 0.00306842 1.21427)
(-0.00167064 0.00266625 1.18019)
(-0.00190964 0.0022097 1.13709)
(0.00245023 0.00282052 1.2923)
(0.00213355 0.00335797 1.33811)
(0.00165842 0.00382841 1.37412)
(0.00105624 0.00417483 1.39908)
(0.000362824 0.00435981 1.41185)
(-0.000362931 0.00435981 1.41185)
(-0.00105635 0.00417483 1.39908)
(-0.00165852 0.0038284 1.37412)
(-0.00213364 0.00335795 1.33811)
(-0.00245031 0.0028205 1.2923)
(0.00291767 0.00333867 1.43108)
(0.00252353 0.00391154 1.47821)
(0.0019512 0.00440733 1.515)
(0.00123731 0.00476919 1.54041)
(0.000424065 0.00496127 1.55337)
(-0.000424188 0.00496127 1.55337)
(-0.00123743 0.00476919 1.54041)
(-0.00195131 0.00440732 1.515)
(-0.00252363 0.00391153 1.47821)
(-0.00291776 0.00333865 1.43108)
(0.00326644 0.00370791 1.55296)
(0.00280071 0.00426206 1.60034)
(0.00214978 0.00472947 1.63698)
(0.00135529 0.0050664 1.66209)
(0.000463095 0.0052437 1.67482)
(-0.000463231 0.0052437 1.67482)
(-0.00135542 0.0050664 1.66208)
(-0.00214991 0.00472947 1.63698)
(-0.00280083 0.00426205 1.60034)
(-0.00326654 0.0037079 1.55296)
(0.00346958 0.00393572 1.65715)
(0.00293572 0.00437043 1.70489)
(0.0022277 0.0047409 1.74043)
(0.00139331 0.00500299 1.76444)
(0.00047417 0.00513925 1.77653)
(-0.000474315 0.00513925 1.77653)
(-0.00139345 0.00500299 1.76444)
(-0.00222783 0.0047409 1.74043)
(-0.00293584 0.00437043 1.70489)
(-0.00346969 0.00393572 1.65715)
(-4.19793e-07 2.19654e-07 0.122866)
(-1.46594e-06 7.19201e-07 0.128952)
(-1.66308e-06 5.4814e-07 0.133859)
(-1.08157e-06 2.34784e-07 0.137305)
(-3.91637e-07 5.69753e-08 0.139081)
(3.87398e-07 5.66551e-08 0.139081)
(1.07746e-06 2.33843e-07 0.137305)
(1.65926e-06 5.46647e-07 0.133859)
(1.46237e-06 7.17171e-07 0.128952)
(4.16927e-07 2.17265e-07 0.122866)
(3.98553e-05 4.79514e-05 0.356339)
(3.2774e-05 6.09135e-05 0.372993)
(2.45488e-05 7.11606e-05 0.386406)
(1.56816e-05 7.85267e-05 0.395811)
(5.37167e-06 8.24984e-05 0.400654)
(-5.38621e-06 8.24975e-05 0.400654)
(-1.56956e-05 7.8524e-05 0.39581)
(-2.45619e-05 7.11564e-05 0.386406)
(-3.27861e-05 6.09079e-05 0.372992)
(-3.98651e-05 4.79447e-05 0.356339)
(0.000136461 0.000160194 0.574524)
(0.000118187 0.000200861 0.600147)
(9.17872e-05 0.000235839 0.620725)
(5.89945e-05 0.000261926 0.63513)
(2.03361e-05 0.000276062 0.642543)
(-2.03622e-05 0.000276061 0.642543)
(-5.90197e-05 0.000261922 0.63513)
(-9.18107e-05 0.000235832 0.620725)
(-0.000118209 0.000200852 0.600147)
(-0.000136479 0.000160184 0.574524)
(0.000288765 0.000335944 0.777282)
(0.000253658 0.00041734 0.810297)
(0.000198883 0.000489135 0.836703)
(0.000128011 0.000543098 0.855154)
(4.41883e-05 0.000572353 0.864639)
(-4.42268e-05 0.000572352 0.864639)
(-0.000128049 0.000543092 0.855154)
(-0.000198918 0.000489127 0.836703)
(-0.000253689 0.000417329 0.810297)
(-0.000288792 0.000335931 0.777281)
(0.000484126 0.000559968 0.964464)
(0.000426828 0.000688775 1.00331)
(0.000335418 0.000803317 1.03423)
(0.000215742 0.000889405 1.05578)
(7.44623e-05 0.000935999 1.06685)
(-7.45137e-05 0.000935998 1.06685)
(-0.000215792 0.000889399 1.05578)
(-0.000335465 0.000803308 1.03423)
(-0.00042687 0.000688764 1.00331)
(-0.000484162 0.000559955 0.964463)
(0.000703515 0.000809677 1.13591)
(0.000619497 0.000984475 1.17905)
(0.000486208 0.00113985 1.21318)
(0.000312062 0.00125618 1.23693)
(0.000107599 0.00131895 1.2491)
(-0.000107663 0.00131895 1.2491)
(-0.000312125 0.00125618 1.23693)
(-0.000486267 0.00113984 1.21318)
(-0.00061955 0.000984463 1.17905)
(-0.000703562 0.000809663 1.13591)
(0.000923997 0.00105808 1.29141)
(0.000810177 0.00126894 1.33735)
(0.00063361 0.00145523 1.37347)
(0.000405321 0.0015938 1.39852)
(0.000139522 0.00166822 1.41134)
(-0.000139599 0.00166821 1.41134)
(-0.000405396 0.0015938 1.39852)
(-0.00063368 0.00145522 1.37347)
(-0.000810242 0.00126893 1.33735)
(-0.000924053 0.00105806 1.29141)
(0.00112164 0.00127687 1.43068)
(0.000977123 0.00150647 1.47802)
(0.000760099 0.00170703 1.515)
(0.000484068 0.00185477 1.54055)
(0.000166244 0.00193359 1.55358)
(-0.000166332 0.00193359 1.55358)
(-0.000484154 0.00185477 1.54055)
(-0.000760181 0.00170702 1.515)
(-0.000977197 0.00150646 1.47802)
(-0.00112171 0.00127686 1.43068)
(0.00127657 0.0014417 1.5532)
(0.00110234 0.00166831 1.60088)
(0.000851001 0.00186102 1.63777)
(0.000538645 0.00200096 1.66307)
(0.000184398 0.00207492 1.67591)
(-0.000184497 0.00207492 1.67591)
(-0.000538741 0.00200096 1.66307)
(-0.000851092 0.00186102 1.63777)
(-0.00110242 0.0016683 1.60088)
(-0.00127664 0.00144169 1.5532)
(0.0013755 0.00155425 1.65811)
(0.00117095 0.00173682 1.70625)
(0.000893153 0.00189196 1.74211)
(0.000560588 0.00200222 1.76635)
(0.000191091 0.00205972 1.77856)
(-0.000191197 0.00205972 1.77856)
(-0.000560692 0.00200222 1.76635)
(-0.000893251 0.00189196 1.7421)
(-0.00117104 0.00173682 1.70625)
(-0.00137558 0.00155425 1.65811)
(2.51107e-08 7.94414e-07 0.122837)
(-8.382e-07 1.18323e-06 0.12892)
(-1.0475e-06 1.01424e-06 0.133824)
(-7.6034e-07 7.23879e-07 0.137267)
(-2.82807e-07 5.38542e-07 0.139042)
(2.79948e-07 5.38329e-07 0.139042)
(7.57569e-07 7.23237e-07 0.137267)
(1.04491e-06 1.01322e-06 0.133824)
(8.3584e-07 1.18186e-06 0.12892)
(-2.70486e-08 7.92837e-07 0.122837)
(1.14101e-05 1.49781e-05 0.356203)
(8.08602e-06 1.92813e-05 0.372845)
(5.40339e-06 2.20247e-05 0.386247)
(3.24214e-06 2.37654e-05 0.395643)
(1.07123e-06 2.46487e-05 0.400482)
(-1.08114e-06 2.46481e-05 0.400482)
(-3.25172e-06 2.37636e-05 0.395643)
(-5.41231e-06 2.20218e-05 0.386247)
(-8.09409e-06 1.92774e-05 0.372845)
(-1.14168e-05 1.49736e-05 0.356203)