/*--------------------------------*- C++ -*----------------------------------*\
| =========                 |                                                 |
| \\      /  F ield         | OpenFOAM: The Open Source CFD Toolbox           |
|  \\    /   O peration     | Version:  2106                                  |
|   \\  /    A nd           | Website:  www.openfoam.com                      |
|    \\/     M anipulation  |                                                 |
\*---------------------------------------------------------------------------*/
FoamFile
{
    version     2.0;
    format      ascii;
    arch        "LSB;label=32;scalar=64";
    class       surfaceScalarField;
    location    "0.16";
    object      phi;
}
// * * * * * * * * * * * * * * * * * * * * * * * * * * * * * * * * * * * * * //

dimensions      [0 3 -1 0 0 0 0];

oriented        oriented;

internalField   nonuniform List<scalar> 
29100
(
0.00103976
0.12863
0.0730628
-1.64726e-10
0.00128411
0.132638
0.080291
0.00110253
0.135419
0.0863318
0.000628097
0.137261
0.0906549
-8.5667e-10
0.138182
0.0929064
-0.0006281
0.138182
0.0929064
-0.00110254
0.137261
0.0906549
-0.00128412
0.135419
0.0863318
-0.00103977
0.132638
0.080291
0.12863
0.0730628
-4.64851e-09
0.00204428
0.174812
0.139829
-5.02267e-10
0.00284039
0.178231
0.151944
0.00253268
0.180433
0.161853
0.00146459
0.181767
0.168859
-2.27271e-09
0.182411
0.172478
-0.0014646
0.182411
0.172478
-0.00253268
0.181767
0.168859
-0.0028404
0.180433
0.161853
-0.00204429
0.178231
0.151944
0.174812
0.139829
-1.02284e-08
0.00255585
0.180294
0.16534
-7.01396e-10
0.00361418
0.181997
0.178667
0.00324143
0.182963
0.189393
0.0018759
0.183381
0.196903
-4.10215e-09
0.18355
0.20076
-0.00187591
0.18355
0.20076
-0.00324144
0.183381
0.196903
-0.00361419
0.182963
0.189393
-0.00255587
0.181997
0.178667
0.180294
0.16534
-1.51834e-08
0.00285317
0.165469
0.170672
-9.52177e-10
0.00397603
0.165572
0.183952
0.00355561
0.165429
0.194493
0.00205298
0.165075
0.201815
-6.05417e-09
0.164848
0.205559
-0.002053
0.164848
0.205559
-0.00355562
0.165075
0.201815
-0.00397604
0.165429
0.194493
-0.00285318
0.165572
0.183952
0.165469
0.170672
-1.91048e-08
0.00296671
0.141795
0.164732
-1.09395e-09
0.00407251
0.140762
0.177513
0.00362855
0.139861
0.187542
0.00209111
0.139015
0.19446
-8.24436e-09
0.138541
0.197983
-0.00209113
0.138541
0.197983
-0.00362857
0.139015
0.19446
-0.00407253
0.139861
0.187542
-0.00296673
0.140762
0.177513
0.141795
0.164732
-2.28313e-08
0.00295262
0.115691
0.152499
-1.26421e-09
0.00400554
0.114009
0.164669
0.00355762
0.1127
0.174128
0.00204779
0.111628
0.180614
-1.11146e-08
0.111049
0.183906
-0.00204781
0.111049
0.183906
-0.00355765
0.111628
0.180614
-0.00400556
0.1127
0.174128
-0.00295265
0.114009
0.164669
0.115691
0.152499
-2.66691e-08
0.0028743
0.0905768
0.13691
-1.7289e-09
0.00386354
0.0886402
0.148506
0.00342244
0.0871992
0.157451
0.0019687
0.0861032
0.163551
-1.50882e-08
0.0855259
0.166639
-0.00196873
0.0855259
0.166639
-0.00342247
0.0861032
0.163551
-0.00386357
0.0871992
0.157451
-0.00287433
0.0886402
0.148506
0.0905767
0.13691
-3.05077e-08
0.00276369
0.0681205
0.119686
-2.36658e-09
0.00370292
0.0661897
0.130797
0.00327761
0.0648077
0.139316
0.00188565
0.0638247
0.145099
-2.01684e-08
0.0633214
0.148019
-0.00188569
0.0633214
0.148019
-0.00327765
0.0638247
0.145099
-0.00370295
0.0648077
0.139316
-0.00276373
0.0661897
0.130797
0.0681205
0.119686
-3.41446e-08
0.0026563
0.048974
0.101807
-2.73617e-09
0.00357829
0.0471885
0.112523
0.00316885
0.0460054
0.120701
0.00182265
0.0452256
0.126229
-2.62914e-08
0.0448398
0.129014
-0.0018227
0.0448398
0.129014
-0.0031689
0.0452256
0.126229
-0.00357834
0.0460054
0.120701
-0.00265634
0.0471885
0.112523
0.048974
0.101807
-3.7671e-08
0.00276584
0.0838158
-3.47402e-09
0.0330321
0.00363853
0.0942082
0.0317104
0.00317693
0.102107
0.0308393
0.00181118
0.107426
0.0303036
-3.29721e-08
0.110101
0.0300406
-0.00181125
0.110101
0.0300406
-0.00317699
0.107426
0.0303036
-0.00363858
0.102107
0.0308393
-0.00276588
0.0942082
0.0317104
0.0838158
-4.06551e-08
0.033032
-0.000214774
0.0296158
0.0436618
-3.82379e-10
-0.000215625
0.032144
0.0481478
-0.000152197
0.0342817
0.0519867
-7.5821e-05
0.0358035
0.0547751
-1.70366e-09
0.0365893
0.0562413
7.58179e-05
0.0365893
0.0562413
0.000152194
0.0358035
0.0547751
0.000215621
0.0342817
0.0519867
0.000214769
0.032144
0.0481478
0.0296158
0.0436618
-5.9043e-09
-6.80908e-06
0.0629247
0.106527
-2.25911e-10
0.000132746
0.0672293
0.116719
0.000185329
0.0708043
0.125278
0.000131187
0.0732909
0.131425
-4.21912e-09
0.0745631
0.134635
-0.000131195
0.0745631
0.134635
-0.000185338
0.0732909
0.131425
-0.000132757
0.0708043
0.125278
6.7962e-06
0.0672293
0.116719
0.0629247
0.106527
-1.4373e-08
0.000377933
0.0842887
0.143598
-5.90286e-10
0.000675741
0.0888887
0.15671
0.000678034
0.0926516
0.167543
0.000419711
0.0952056
0.175247
-6.59958e-09
0.0964981
0.179245
-0.000419724
0.0964981
0.179245
-0.000678049
0.0952056
0.175247
-0.000675758
0.0926516
0.167543
-0.000377953
0.0888887
0.15671
0.0842887
0.143598
-2.15242e-08
0.000793533
0.0932447
0.160923
-1.05017e-09
0.00123158
0.0972171
0.175185
0.00117041
0.100416
0.18679
0.000702743
0.102524
0.194964
-9.2003e-09
0.103575
0.199184
-0.000702763
0.103575
0.199184
-0.00117043
0.102524
0.194964
-0.0012316
0.100416
0.18679
-0.000793558
0.0972171
0.175185
0.0932447
0.160923
-2.7292e-08
0.00117597
0.0922617
0.164539
-1.6922e-09
0.00172207
0.0952212
0.178963
0.00159615
0.0975557
0.190529
0.000944326
0.099033
0.198603
-1.23718e-08
0.099754
0.202749
-0.000944353
0.099754
0.202749
-0.00159617
0.0990331
0.198603
-0.0017221
0.0975557
0.190529
-0.001176
0.0952212
0.178963
0.0922617
0.164539
-3.21747e-08
0.00149585
0.0844082
0.158857
-2.43378e-09
0.00212049
0.0863254
0.17294
0.0019366
0.0877841
0.184084
0.00113587
0.0886506
0.191797
-1.65155e-08
0.0890583
0.195738
-0.0011359
0.0890583
0.195738
-0.00193663
0.0886506
0.191797
-0.00212053
0.0877841
0.184084
-0.00149589
0.0863254
0.17294
0.0844082
0.158857
-3.64659e-08
0.001743
0.0725041
0.147071
-3.40258e-09
0.00242599
0.073534
0.160614
0.00219698
0.0742576
0.171207
0.00128231
0.0746355
0.178481
-2.17493e-08
0.0747993
0.18218
-0.00128236
0.0747993
0.18218
-0.00219702
0.0746355
0.178481
-0.00242603
0.0742576
0.171207
-0.00174304
0.073534
0.160614
0.0725041
0.147071
-4.03721e-08
0.00192031
0.058804
0.131466
-4.28367e-09
0.00265718
0.0591532
0.14444
0.0023992
0.0593421
0.15449
0.00139747
0.059392
0.161344
-2.78371e-08
0.0594
0.164815
-0.00139753
0.0594
0.164815
-0.00239925
0.059392
0.161344
-0.00265723
0.0593421
0.15449
-0.00192036
0.0591532
0.14444
0.058804
0.131466
-4.36842e-08
0.00206237
0.0449313
0.113617
-5.71948e-09
0.00286534
0.0447929
0.126081
0.00258543
0.0446674
0.135656
0.00150361
0.0445549
0.142148
-3.42349e-08
0.0444932
0.145424
-0.00150368
0.0444932
0.145424
-0.0025855
0.0445549
0.142148
-0.00286539
0.0446674
0.135656
-0.00206242
0.0447929
0.126081
0.0449313
0.113617
-4.54925e-08
0.00231932
0.0945716
-7.09683e-09
0.0318561
0.00318003
0.106612
0.0315286
0.00283744
0.115799
0.0313186
0.00163727
0.121994
0.0311873
-4.08253e-08
0.125112
0.0311199
-0.00163735
0.125112
0.0311199
-0.00283751
0.121994
0.0311873
-0.00318009
0.115799
0.0313186
-0.00231937
0.106612
0.0315286
0.0945716
-4.50146e-08
0.0318561
4.44538e-05
0.00688376
0.0367336
-1.69305e-10
4.3803e-05
0.00759857
0.0405499
3.59819e-05
0.00820779
0.0437867
1.98512e-05
0.00866013
0.0461311
-1.15403e-09
0.00889874
0.0473624
-1.98543e-05
0.00889873
0.0473624
-3.59854e-05
0.00866012
0.0461311
-4.38069e-05
0.00820779
0.0437867
-4.44584e-05
0.00759857
0.0405499
0.00688376
0.0367336
-5.49821e-09
0.000228728
0.020485
0.0926967
-4.17028e-10
0.00030602
0.0222576
0.101982
0.000270442
0.0237416
0.10978
0.000156804
0.0248071
0.115392
-3.01742e-09
0.0253629
0.118328
-0.000156812
0.0253629
0.118328
-0.000270451
0.0248071
0.115392
-0.00030603
0.0237416
0.10978
-0.000228739
0.0222576
0.101982
0.020485
0.0926967
-1.32328e-08
0.00044417
0.0337227
0.129917
-6.38446e-10
0.000622929
0.0361711
0.142618
0.000560194
0.0381863
0.153161
0.000326939
0.0395937
0.160693
-5.77306e-09
0.0403195
0.164615
-0.000326952
0.0403195
0.164615
-0.000560208
0.0395937
0.160693
-0.000622945
0.0381863
0.153161
-0.000444188
0.0361711
0.142618
0.0337227
0.129917
-2.01259e-08
0.000670367
0.0427947
0.15118
-9.49485e-10
0.000953205
0.0453835
0.16569
0.000865268
0.0474814
0.177582
0.000506246
0.0489087
0.186008
-8.59848e-09
0.0496354
0.190374
-0.000506264
0.0496354
0.190374
-0.000865288
0.0489087
0.186008
-0.000953226
0.0474814
0.177582
-0.000670391
0.0453835
0.16569
0.0427947
0.15118
-2.54811e-08
0.000891748
0.0468176
0.159625
-1.40737e-09
0.0012665
0.0491383
0.174833
0.00115277
0.0509882
0.187136
0.000674619
0.0522118
0.195778
-1.17443e-08
0.0528256
0.200233
-0.000674643
0.0528256
0.200233
-0.00115279
0.0522118
0.195778
-0.00126652
0.0509882
0.187136
-0.000891776
0.0491383
0.174833
0.0468176
0.159625
-2.98786e-08
0.00109804
0.0462975
0.158279
-1.95824e-09
0.00154822
0.0481292
0.173499
0.00140813
0.0495576
0.185655
0.000823427
0.0504718
0.194122
-1.54744e-08
0.0509221
0.198464
-0.000823458
0.0509221
0.198464
-0.00140816
0.0504718
0.194122
-0.00154826
0.0495576
0.185655
-0.00109807
0.0481292
0.173499
0.0462975
0.158279
-3.3215e-08
0.00127811
0.04232
0.149771
-2.69888e-09
0.00178968
0.0435974
0.164634
0.00162563
0.0445616
0.176367
0.000949964
0.0451546
0.184474
-1.97666e-08
0.0454403
0.188612
-0.000950003
0.0454403
0.188612
-0.00162567
0.0451546
0.184474
-0.00178972
0.0445616
0.176367
-0.00127814
0.0435974
0.164634
0.04232
0.149771
-3.54425e-08
0.00142551
0.0361071
0.136253
-3.7981e-09
0.00199181
0.0368618
0.15061
0.001809
0.0374084
0.161826
0.00105693
0.03773
0.16952
-2.42782e-08
0.0378814
0.173431
-0.00105698
0.0378814
0.173431
-0.00180904
0.03773
0.16952
-0.00199186
0.0374084
0.161826
-0.00142554
0.0368618
0.15061
0.0361071
0.136253
-3.65514e-08
0.00155222
0.0287771
0.119395
-5.389e-09
0.00217377
0.0290931
0.133228
0.00197345
0.0293249
0.14394
0.00115201
0.0294578
0.151241
-2.82342e-08
0.0295199
0.154938
-0.00115207
0.0295199
0.154938
-0.0019735
0.0294578
0.151241
-0.00217381
0.0293249
0.14394
-0.00155225
0.0290931
0.133228
0.0287771
0.119395
-3.58301e-08
0.00172506
0.10043
-7.50628e-09
0.0211933
0.00238612
0.113797
0.0212464
0.00214877
0.124063
0.0212979
0.00124754
0.131018
0.0213349
-3.053e-08
0.134527
0.0213518
-0.0012476
0.134527
0.0213519
-0.00214883
0.131018
0.0213349
-0.00238617
0.124063
0.0212979
-0.00172509
0.113797
0.0212464
0.10043
-3.30245e-08
0.0211933
-2.81083e-05
0.00269934
0.0340624
-2.15557e-10
-3.95843e-05
0.00296693
0.0375945
-3.28666e-05
0.00319386
0.0405861
-1.82789e-05
0.00336088
0.0427556
-1.41271e-09
0.00344811
0.043896
1.82765e-05
0.00344811
0.043896
3.28639e-05
0.00336088
0.0427556
3.95811e-05
0.00319386
0.0405861
2.81045e-05
0.00296693
0.0375945
0.00269934
0.0340624
-4.41204e-09
-1.24196e-05
0.00792312
0.0874853
-2.91094e-10
-1.49326e-05
0.00865041
0.0963014
-9.36754e-06
0.0092664
0.103702
-3.43761e-06
0.0097113
0.109036
-3.50113e-09
0.0099436
0.111829
3.43148e-06
0.0099436
0.111829
9.36086e-06
0.0097113
0.109036
1.49245e-05
0.0092664
0.103702
1.24101e-05
0.00865041
0.0963014
0.00792313
0.0874853
-1.06556e-08
4.69873e-05
0.0135382
0.124254
-6.53291e-10
7.4173e-05
0.0146698
0.136571
7.35876e-05
0.0156205
0.146808
4.59951e-05
0.0162956
0.154137
-5.37628e-09
0.0166461
0.157959
-4.60056e-05
0.0166461
0.157959
-7.35989e-05
0.0162956
0.154137
-7.41858e-05
0.0156205
0.146808
-4.70019e-05
0.0146698
0.136571
0.0135382
0.124254
-1.61483e-08
0.000135521
0.018103
0.14648
-9.70066e-10
0.000204406
0.0194519
0.160839
0.000194477
0.0205721
0.172641
0.000117442
0.0213535
0.181028
-7.393e-09
0.0217559
0.185382
-0.000117457
0.0217559
0.185382
-0.000194493
0.0213535
0.181028
-0.000204423
0.0205721
0.172641
-0.00013554
0.0194519
0.160839
0.018103
0.14648
-2.04496e-08
0.000242168
0.0208698
0.156616
-1.36165e-09
0.000356557
0.0222314
0.171939
0.000334354
0.0233452
0.184385
0.000199602
0.0241071
0.19316
-9.59051e-09
0.0244957
0.197693
-0.000199621
0.0244957
0.197693
-0.000334374
0.0241071
0.19316
-0.000356578
0.0233452
0.184385
-0.000242191
0.0222314
0.171939
0.0208698
0.156616
-2.38568e-08
0.000356736
0.0216613
0.15713
-2.02434e-09
0.000515888
0.0228768
0.172694
0.000479438
0.0238509
0.185185
0.000284422
0.0245031
0.193921
-1.20807e-08
0.0248319
0.198413
-0.000284446
0.0248319
0.198413
-0.000479462
0.0245031
0.193921
-0.000515913
0.0238509
0.185185
-0.000356761
0.0228768
0.172694
0.0216613
0.15713
-2.62938e-08
0.000469819
0.0206763
0.150286
-2.88475e-09
0.000671526
0.0216509
0.165658
0.000620644
0.0224109
0.177858
0.000366844
0.0229083
0.186323
-1.47383e-08
0.0231561
0.190655
-0.000366873
0.0231561
0.190655
-0.000620673
0.0229083
0.186323
-0.000671554
0.0224109
0.177858
-0.000469846
0.0216509
0.165658
0.0206763
0.150286
-2.7675e-08
0.000575561
0.0183188
0.138035
-3.56342e-09
0.000819368
0.0190141
0.153003
0.000755257
0.0195409
0.16476
0.000445432
0.0198792
0.172859
-1.73179e-08
0.0200462
0.176986
-0.000445466
0.0200462
0.176986
-0.00075529
0.0198793
0.172859
-0.000819399
0.0195409
0.16476
-0.000575589
0.0190141
0.153003
0.0183188
0.138035
-2.79841e-08
0.000679992
0.0150664
0.121967
-4.33529e-09
0.000967805
0.0154898
0.136464
0.00088917
0.0158099
0.14775
0.000522885
0.0160151
0.155472
-1.92227e-08
0.0161164
0.159391
-0.000522923
0.0161164
0.159391
-0.000889205
0.0160151
0.155472
-0.000967837
0.0158099
0.147749
-0.000680019
0.0154898
0.136464
0.0150664
0.121967
-2.65231e-08
0.000814773
0.103313
-5.84197e-09
0.0113685
0.00114271
0.117375
0.0115845
0.00103908
0.12822
0.0117562
0.000606781
0.135593
0.0118726
-1.99617e-08
0.13932
0.0119302
-0.000606819
0.13932
0.0119302
-0.00103912
0.135593
0.0118726
-0.00114274
0.12822
0.0117562
-0.000814797
0.117375
0.0115845
0.103313
-2.29112e-08
0.0113685
5.17372e-06
0.000694328
0.0333629
-1.61612e-10
3.88802e-06
0.000775496
0.0368203
3.0584e-06
0.000847016
0.0397399
1.59123e-06
0.000902086
0.041855
-9.55657e-10
0.000931547
0.042966
-1.59332e-06
0.000931547
0.042966
-3.06062e-06
0.000902086
0.041855
-3.89052e-06
0.000847016
0.0397399
-5.17664e-06
0.000775496
0.0368203
0.000694328
0.0333629
-3.36517e-09
2.4258e-05
0.00250937
0.085646
-2.72237e-10
2.99613e-05
0.00276999
0.0943012
2.60815e-05
0.00299566
0.101557
1.50127e-05
0.00316308
0.106786
-2.20153e-09
0.00325183
0.109523
-1.50178e-05
0.00325183
0.109523
-2.60871e-05
0.00316308
0.106786
-2.99678e-05
0.00299566
0.101557
-2.42653e-05
0.00276999
0.0943013
0.00250938
0.085646
-7.90856e-09
5.38559e-05
0.00477443
0.121936
-4.49233e-10
7.39054e-05
0.00522331
0.134098
6.65402e-05
0.00560695
0.144204
3.89467e-05
0.00588516
0.151442
-3.86831e-09
0.00603145
0.155218
-3.89551e-05
0.00603145
0.155218
-6.65493e-05
0.00588516
0.151442
-7.39156e-05
0.00560695
0.144204
-5.38671e-05
0.00522331
0.134098
0.00477443
0.121936
-1.21626e-08
9.40067e-05
0.00686184
0.144299
-7.43958e-10
0.00013383
0.00744317
0.158579
0.000122559
0.00793386
0.170325
7.21974e-05
0.00828309
0.17868
-5.46905e-09
0.00846517
0.18302
-7.2209e-05
0.00846517
0.18302
-0.000122571
0.00828309
0.17868
-0.000133843
0.00793386
0.170325
-9.40209e-05
0.00744318
0.158579
0.00686185
0.144299
-1.54178e-08
0.00014282
0.00836013
0.154975
-1.12587e-09
0.00020536
0.00899121
0.170329
0.000189306
0.00951647
0.182819
0.000111759
0.00988365
0.191637
-7.08896e-09
0.0100733
0.196197
-0.000111774
0.0100733
0.196197
-0.000189321
0.00988365
0.191637
-0.000205376
0.00951647
0.182819
-0.000142837
0.00899122
0.170329
0.00836013
0.154975
-1.79803e-08
0.000197421
0.009075
0.156218
-1.54114e-09
0.000283679
0.00967651
0.171922
0.000261927
0.0101686
0.184555
0.000154679
0.0105064
0.193405
-8.81901e-09
0.0106791
0.197961
-0.000154697
0.0106791
0.197961
-0.000261945
0.0105064
0.193405
-0.000283698
0.0101686
0.184555
-0.000197439
0.00967652
0.171922
0.009075
0.156218
-1.97644e-08
0.000254211
0.00899196
0.150115
-2.0219e-09
0.000364122
0.0095047
0.16572
0.000336188
0.00991542
0.178139
0.000198476
0.0101921
0.186775
-1.05811e-08
0.0103322
0.1912
-0.000198497
0.0103322
0.1912
-0.000336209
0.0101921
0.186775
-0.000364143
0.00991543
0.178139
-0.00025423
0.0095047
0.16572
0.00899196
0.150115
-2.05983e-08
0.000310213
0.00822294
0.138494
-2.72892e-09
0.000443762
0.00861287
0.153761
0.000409554
0.00891861
0.165791
0.000241634
0.00912139
0.174098
-1.22295e-08
0.00922315
0.178337
-0.000241658
0.00922316
0.178337
-0.000409576
0.00912139
0.174098
-0.000443783
0.00891862
0.165791
-0.000310233
0.00861288
0.153761
0.00822295
0.138494
-2.05139e-08
0.000366307
0.00695256
0.122871
-3.70711e-09
0.00052333
0.00721106
0.137709
0.000481793
0.00741192
0.149298
0.000283685
0.00754423
0.157247
-1.3411e-08
0.00761037
0.161287
-0.000283711
0.00761037
0.161287
-0.000481817
0.00754424
0.157247
-0.000523351
0.00741193
0.149298
-0.000366325
0.00721106
0.137709
0.00695257
0.122871
-1.89768e-08
0.000429216
0.104447
-4.64202e-09
0.00538992
0.000605862
0.118873
0.00553611
0.000553964
0.130034
0.00565035
0.000324691
0.137638
0.00572818
-1.37038e-08
0.141488
0.00576716
-0.000324717
0.141488
0.00576716
-0.000553988
0.137638
0.00572819
-0.000605882
0.130034
0.00565036
-0.000429232
0.118873
0.00553612
0.104447
-1.64987e-08
0.00538992
-4.10506e-06
0.000332145
0.0330349
-1.31326e-10
-6.21523e-06
0.000364486
0.0364579
-5.27925e-06
0.000391424
0.0393476
-2.98845e-06
0.000411475
0.0414412
-8.69824e-10
0.000421963
0.0425411
2.98673e-06
0.000421963
0.0425411
5.2774e-06
0.000411475
0.0414412
6.21325e-06
0.000391424
0.0393476
4.10295e-06
0.000364486
0.0364579
0.000332145
0.0330349
-2.40325e-09
-3.47446e-06
0.00107475
0.0849069
-2.70387e-10
-5.47294e-06
0.00117893
0.0934888
-4.61466e-06
0.00126712
0.100681
-2.49793e-06
0.00133181
0.105863
-2.05372e-09
0.00136585
0.108577
2.49376e-06
0.00136585
0.108577
4.61012e-06
0.00133181
0.105863
5.46809e-06
0.00126712
0.100681
3.46926e-06
0.00117893
0.0934888
0.00107475
0.0849069
-5.58006e-09
4.23106e-06
0.00199763
0.121008
-4.19693e-10
6.15395e-06
0.00218459
0.13309
6.1814e-06
0.00234309
0.143128
3.95834e-06
0.00245781
0.150318
-3.31314e-09
0.00251806
0.15407
-3.96513e-06
0.00251806
0.15407
-6.1886e-06
0.00245781
0.150318
-6.16154e-06
0.00234309
0.143128
-4.23911e-06
0.00218459
0.13309
0.00199763
0.121008
-8.65975e-09
1.8141e-05
0.00288827
0.14339
-5.82016e-10
2.69929e-05
0.00314276
0.157612
2.57403e-05
0.00335727
0.169312
1.56055e-05
0.00351053
0.177637
-4.49512e-09
0.00359058
0.181963
-1.56147e-05
0.00359058
0.181963
-2.57499e-05
0.00351053
0.177637
-2.7003e-05
0.00335727
0.169312
-1.81515e-05
0.00314276
0.157612
0.00288827
0.14339
-1.10377e-08
3.73882e-05
0.00357732
0.154248
-7.86103e-10
5.52926e-05
0.00386838
0.169585
5.21943e-05
0.00411118
0.182068
3.13143e-05
0.0042822
0.190886
-5.61094e-09
0.00437091
0.195448
-3.13257e-05
0.00437091
0.195448
-5.2206e-05
0.0042822
0.190886
-5.53046e-05
0.00411118
0.182068
-3.74004e-05
0.00386838
0.169585
0.00357732
0.154248
-1.29033e-08
6.07361e-05
0.00396226
0.155772
-1.10669e-09
8.89942e-05
0.00425483
0.171508
8.3537e-05
0.00449533
0.184176
4.98764e-05
0.00466217
0.193059
-6.75242e-09
0.004748
0.197634
-4.989e-05
0.004748
0.197634
-8.35507e-05
0.00466217
0.193059
-8.9008e-05
0.00449533
0.184176
-6.07497e-05
0.00425483
0.171508
0.00396226
0.155772
-1.42661e-08
8.66659e-05
0.00400857
0.149982
-1.53625e-09
0.000126061
0.00427205
0.165664
0.000117901
0.00448464
0.178158
7.0189e-05
0.00462986
0.186855
-7.84757e-09
0.00470394
0.191315
-7.02047e-05
0.00470394
0.191315
-0.000117916
0.00462986
0.186855
-0.000126076
0.00448464
0.178158
-8.66805e-05
0.00427205
0.165664
0.00400858
0.149982
-1.50795e-08
0.000113979
0.00373887
0.13865
-1.89278e-09
0.000165255
0.00395158
0.15403
0.000154144
0.00412014
0.166166
9.15457e-05
0.00423376
0.174557
-8.77864e-09
0.00429129
0.178841
-9.1563e-05
0.00429129
0.178841
-0.00015416
0.00423376
0.174557
-0.000165271
0.00412014
0.166166
-0.000113994
0.00395158
0.15403
0.00373887
0.13865
-1.52693e-08
0.000143586
0.00321581
0.123251
-2.30674e-09
0.000207334
0.00336777
0.138229
0.000192397
0.00348722
0.149946
0.00011383
0.00356716
0.157992
-9.29625e-09
0.00360744
0.162085
-0.000113848
0.00360744
0.162085
-0.000192414
0.00356716
0.157992
-0.000207349
0.00348722
0.149946
-0.0001436
0.00336777
0.138229
0.00321581
0.123251
-1.44798e-08
0.00017914
0.10496
-2.94804e-09
0.0025239
0.00025453
0.119547
0.00261873
0.000233996
0.130848
0.00269352
0.000137603
0.138557
0.00274473
-9.27327e-09
0.142463
0.00277053
-0.000137621
0.142463
0.00277054
-0.000234013
0.138557
0.00274473
-0.000254544
0.130848
0.00269352
-0.000179153
0.119547
0.00261873
0.10496
-1.29591e-08
0.0025239
4.72439e-07
8.91829e-05
0.0329452
-9.05634e-11
1.65177e-07
9.94908e-05
0.0363587
1.07996e-07
0.000108587
0.0392391
4.19069e-08
0.000115696
0.0413256
-6.87167e-10
0.000119521
0.0424216
-4.32842e-08
0.000119521
0.0424216
-1.09419e-07
0.000115696
0.0413256
-1.6657e-07
0.000108587
0.0392391
-4.73956e-07
9.94909e-05
0.0363587
8.91831e-05
0.0329452
-1.69331e-09
2.61671e-06
0.000350259
0.0846432
-1.77969e-10
2.95658e-06
0.000387955
0.0932
2.54286e-06
0.000420752
0.100369
1.45511e-06
0.000445407
0.105535
-1.62928e-09
0.000458563
0.10824
-1.45847e-06
0.000458563
0.10824
-2.54627e-06
0.000445407
0.105535
-2.96014e-06
0.000420752
0.100369
-2.62035e-06
0.000387955
0.0932
0.00035026
0.0846432
-3.87249e-09
6.65335e-06
0.000707979
0.120644
-3.0079e-10
8.92371e-06
0.000779766
0.132696
8.02887e-06
0.000841699
0.142708
4.70517e-06
0.000887307
0.14988
-2.58078e-09
0.000911495
0.153622
-4.71045e-06
0.000911495
0.153622
-8.03431e-06
0.000887307
0.14988
-8.92935e-06
0.000841699
0.142708
-6.65913e-06
0.000779766
0.132696
0.000707979
0.120644
-6.09183e-09
1.2909e-05
0.00107463
0.14301
-4.18982e-10
1.83075e-05
0.00117659
0.15721
1.68319e-05
0.0012638
0.168892
9.94877e-06
0.00132704
0.177205
-3.4237e-09
0.00136036
0.181525
-9.95575e-06
0.00136036
0.181525
-1.68391e-05
0.00132704
0.177205
-1.83149e-05
0.0012638
0.168892
-1.29165e-05
0.00117659
0.15721
0.00107463
0.14301
-7.85408e-09
2.13791e-05
0.00137736
0.153924
-5.5013e-10
3.08743e-05
0.0014982
0.169254
2.86417e-05
0.00160046
0.181733
1.69856e-05
0.00167355
0.190551
-4.16342e-09
0.00171178
0.195113
-1.6994e-05
0.00171178
0.195113
-2.86504e-05
0.00167355
0.190551
-3.08831e-05
0.00160046
0.181733
-2.1388e-05
0.0014982
0.169254
0.00137736
0.153924
-9.26288e-09
3.17859e-05
0.00156685
0.155551
-6.9979e-10
4.60854e-05
0.00169217
0.1713
4.28882e-05
0.00179678
0.183983
2.546e-05
0.00187048
0.19288
-4.89119e-09
0.00190873
0.197463
-2.54698e-05
0.00190873
0.197463
-4.28983e-05
0.00187049
0.19288
-4.60955e-05
0.00179679
0.183983
-3.17959e-05
0.00169217
0.1713
0.00156685
0.155551
-1.0289e-08
4.36092e-05
0.00162039
0.149885
-9.07184e-10
6.31997e-05
0.00173645
0.1656
5.88613e-05
0.00183173
0.178127
3.49409e-05
0.00189788
0.186851
-5.56878e-09
0.00193192
0.191326
-3.49521e-05
0.00193192
0.191326
-5.88725e-05
0.00189788
0.186851
-6.32108e-05
0.00183173
0.178127
-4.36198e-05
0.00173645
0.1656
0.00162039
0.149885
-1.08893e-08
5.63223e-05
0.00153999
0.138674
-1.22862e-09
8.15763e-05
0.00163628
0.154105
7.593e-05
0.00171398
0.16629
4.50307e-05
0.00176718
0.174718
-6.16296e-09
0.00179433
0.179024
-4.5043e-05
0.00179433
0.179024
-7.5942e-05
0.00176718
0.174718
-8.15878e-05
0.00171398
0.16629
-5.63331e-05
0.00163628
0.154105
0.00154
0.138674
-1.10917e-08
6.99548e-05
0.00134723
0.123374
-1.55632e-09
0.000100964
0.00141819
0.138416
9.3629e-05
0.00147458
0.150192
5.53814e-05
0.00151275
0.158285
-6.60648e-09
0.00153209
0.162402
-5.53944e-05
0.00153209
0.162402
-9.36415e-05
0.00151275
0.158285
-0.000100976
0.00147458
0.150192
-6.99653e-05
0.00141819
0.138416
0.00134723
0.123374
-1.06987e-08
8.44658e-05
0.105146
-1.65041e-09
0.00107693
0.000120582
0.119807
0.00112216
0.000111211
0.131174
0.00115774
6.55411e-05
0.138933
0.00118218
-6.82225e-09
0.142866
0.00119456
-6.55544e-05
0.142866
0.00119456
-0.000111224
0.138933
0.00118218
-0.000120593
0.131174
0.00115774
-8.44757e-05
0.119807
0.00112216
0.105145
-9.80387e-09
0.00107693
-8.02217e-07
4.87298e-05
0.0328973
-5.16885e-11
-1.19628e-06
5.33561e-05
0.0363057
-1.01828e-06
5.71606e-05
0.0391817
-5.78373e-07
6.0006e-05
0.0412652
-5.36615e-10
6.14905e-05
0.0423595
5.77305e-07
6.14906e-05
0.0423595
1.01719e-06
6.0006e-05
0.0412652
1.19517e-06
5.71606e-05
0.0391817
8.0109e-07
5.33561e-05
0.0363057
4.87298e-05
0.0328973
-1.17617e-09
-9.8105e-07
0.000162744
0.0845302
-8.54776e-11
-1.5082e-06
0.000178677
0.0930752
-1.30923e-06
0.000192104
0.100234
-7.35502e-07
0.000202029
0.105392
-1.26375e-09
0.000207259
0.108093
7.32996e-07
0.00020726
0.108093
1.30669e-06
0.000202029
0.105392
1.50559e-06
0.000192104
0.100234
9.78415e-07
0.000178677
0.0930752
0.000162744
0.0845302
-2.63712e-09
8.13896e-08
0.000312298
0.120494
-1.49948e-10
7.13946e-08
0.000342708
0.132532
1.21387e-07
0.000368519
0.142531
1.19847e-07
0.000387344
0.149694
-1.96175e-09
0.000397283
0.153432
-1.23785e-07
0.000397283
0.153432
-1.25443e-07
0.000387344
0.149694
-7.55187e-08
0.000368519
0.142531
-8.55132e-08
0.000342708
0.132532
0.000312299
0.120494
-4.18399e-09
2.23597e-06
0.000466761
0.142854
-2.24164e-10
3.3127e-06
0.000510712
0.157041
3.19226e-06
0.000547942
0.168712
1.95162e-06
0.00057483
0.177018
-2.56408e-09
0.000588969
0.181335
-1.95678e-06
0.000588969
0.181335
-3.19748e-06
0.00057483
0.177018
-3.31801e-06
0.000547942
0.168712
-2.24128e-06
0.000510713
0.157041
0.000466762
0.142854
-5.42911e-09
5.50868e-06
0.00059754
0.153788
-3.1938e-10
8.16316e-06
0.000650871
0.169111
7.7464e-06
0.000695724
0.181586
4.66579e-06
0.000727754
0.190401
-3.06344e-09
0.000744502
0.194963
-4.67194e-06
0.000744502
0.194963
-7.75257e-06
0.000727754
0.190401
-8.16936e-06
0.000695725
0.181586
-5.51481e-06
0.000650871
0.169111
0.000597541
0.153788
-6.39899e-09
9.74242e-06
0.000683336
0.155456
-4.66619e-10
1.43603e-05
0.000740131
0.171206
1.35547e-05
0.000787356
0.183892
8.1226e-06
0.00082066
0.192792
-3.53925e-09
0.000837958
0.197377
-8.12969e-06
0.000837958
0.197377
-1.35617e-05
0.000820661
0.192792
-1.43672e-05
0.000787357
0.183892
-9.74919e-06
0.000740132
0.171206
0.000683337
0.155456
-7.10276e-09
1.47363e-05
0.000712488
0.149841
-6.38731e-10
2.1618e-05
0.000766608
0.165567
2.03436e-05
0.00081095
0.178105
1.21567e-05
0.000841814
0.186838
-3.99062e-09
0.000857726
0.191319
-1.21646e-05
0.000857726
0.191319
-2.03514e-05
0.000841814
0.186838
-2.16256e-05
0.000810951
0.178105
-1.47436e-05
0.000766609
0.165567
0.000712489
0.149841
-7.55355e-09
2.03134e-05
0.000683292
0.138683
-8.33394e-10
2.97247e-05
0.00072958
0.154133
2.78935e-05
0.00076695
0.166336
1.66247e-05
0.000792638
0.174779
-4.42162e-09
0.000805782
0.179093
-1.66335e-05
0.000805782
0.179093
-2.7902e-05
0.000792639
0.174779
-2.97329e-05
0.00076695
0.166336
-2.03211e-05
0.000729581
0.154133
0.000683293
0.138683
-7.80708e-09
2.66309e-05
0.000602616
0.123428
-8.45713e-10
3.87291e-05
0.000637926
0.138496
3.61203e-05
0.000666107
0.150296
2.14367e-05
0.000685271
0.158407
-4.81751e-09
0.000695007
0.162535
-2.14463e-05
0.000695007
0.162535
-3.61296e-05
0.000685271
0.158407
-3.87379e-05
0.000666107
0.150296
-2.6639e-05
0.000637927
0.138496
0.000602616
0.123428
-7.762e-09
3.39584e-05
0.10523
-9.22301e-10
0.000483819
4.86245e-05
0.119923
0.000507362
4.49848e-05
0.131318
0.000526017
2.656e-05
0.139098
0.000538871
-5.14915e-09
0.143042
0.000545394
-2.65702e-05
0.143042
0.000545394
-4.49945e-05
0.139098
0.000538872
-4.86338e-05
0.131318
0.000526018
-3.39665e-05
0.119923
0.000507362
0.10523
-7.3947e-09
0.000483819
5.16686e-09
1.29647e-05
0.0328843
-4.18469e-11
-6.9914e-08
1.44673e-05
0.0362913
-6.64912e-08
1.58018e-05
0.0391659
-4.16923e-08
1.68582e-05
0.0412483
-4.18214e-10
1.74279e-05
0.0423421
4.08516e-08
1.74279e-05
0.0423421
6.56693e-08
1.68581e-05
0.0412483
6.90868e-08
1.58017e-05
0.0391659
-5.91099e-09
1.44673e-05
0.0362913
1.29648e-05
0.0328843
-7.8068e-10
2.36492e-07
5.34992e-05
0.0844894
-5.38423e-11
2.0536e-07
5.93818e-05
0.0930303
1.63917e-07
6.45219e-05
0.100185
9.0583e-08
6.84193e-05
0.105341
-9.57741e-10
7.05064e-05
0.10804
-9.25012e-08
7.05063e-05
0.10804
-1.65806e-07
6.84192e-05
0.105341
-2.07183e-07
6.45218e-05
0.100185
-2.38226e-07
5.93817e-05
0.0930303
5.34993e-05
0.0844894
-1.74209e-09
8.18911e-07
0.000111546
0.120436
-1.05486e-10
1.05396e-06
0.000123297
0.132468
9.39129e-07
0.000133484
0.142462
5.48856e-07
0.000141052
0.149622
-1.49215e-09
0.000145084
0.153358
-5.51839e-07
0.000145084
0.153358
-9.42078e-07
0.000141052
0.149622
-1.05683e-06
0.000133484
0.142462
-8.21654e-07
0.000123297
0.132468
0.000111546
0.120436
-2.78045e-09
1.8229e-06
0.00017397
0.142789
-1.68355e-10
2.55351e-06
0.000191411
0.156972
2.34313e-06
0.000206422
0.16864
1.38499e-06
0.000217416
0.176943
-1.9471e-09
0.00022324
0.181258
-1.38889e-06
0.00022324
0.181258
-2.347e-06
0.000217415
0.176943
-2.55728e-06
0.000206421
0.16864
-1.8265e-06
0.000191411
0.156972
0.00017397
0.142789
-3.62324e-09
3.27147e-06
0.000228721
0.15373
-2.48312e-10
4.70741e-06
0.000250297
0.169051
4.36981e-06
0.000268696
0.181524
2.59413e-06
0.000282
0.190338
-2.32676e-09
0.000289004
0.194899
-2.59879e-06
0.000289004
0.194899
-4.37443e-06
0.000282
0.190338
-4.71192e-06
0.000268696
0.181524
-3.27579e-06
0.000250297
0.169051
0.000228722
0.15373
-4.2695e-09
5.14062e-06
0.000266527
0.155413
-3.21288e-10
7.46003e-06
0.000289863
0.171164
6.95768e-06
0.000309525
0.183852
4.13724e-06
0.000323561
0.192753
-2.68077e-09
0.000330897
0.19734
-4.14261e-06
0.000330897
0.19734
-6.96302e-06
0.000323561
0.192753
-7.46526e-06
0.000309526
0.183852
-5.14562e-06
0.000289863
0.171164
0.000266528
0.155413
-4.77841e-09
7.3593e-06
0.00028193
0.149818
-3.62889e-10
1.07052e-05
0.000304458
0.165549
1.00018e-05
0.00032316
0.178092
5.94932e-06
0.000336331
0.18683
-2.9963e-09
0.000343163
0.191313
-5.95532e-06
0.000343163
0.191313
-1.00077e-05
0.000336332
0.18683
-1.07111e-05
0.00032316
0.178092
-7.36484e-06
0.000304458
0.165549
0.00028193
0.149818
-5.18009e-09
9.84536e-06
0.00027359
0.138681
-4.30049e-10
1.43306e-05
0.000293098
0.154139
1.33839e-05
0.000309034
0.166351
7.95386e-06
0.000320101
0.1748
-3.24614e-09
0.000325792
0.179118