/*--------------------------------*- C++ -*----------------------------------*\
| =========                 |                                                 |
| \\      /  F ield         | OpenFOAM: The Open Source CFD Toolbox           |
|  \\    /   O peration     | Version:  2106                                  |
|   \\  /    A nd           | Website:  www.openfoam.com                      |
|    \\/     M anipulation  |                                                 |
\*---------------------------------------------------------------------------*/
FoamFile
{
    version     2.0;
    format      ascii;
    arch        "LSB;label=32;scalar=64";
    class       volVectorField;
    location    "0.16";
    object      U;
}
// * * * * * * * * * * * * * * * * * * * * * * * * * * * * * * * * * * * * * //

dimensions      [0 1 -1 0 0 0 0];

internalField   nonuniform List<vector> 
10000
(
(0.0540577 0.0636542 0.302536)
(0.0461138 0.0723283 0.31516)
(0.0344559 0.080187 0.325081)
(0.0213768 0.0856765 0.331926)
(0.00724514 0.0885164 0.335403)
(-0.00724515 0.0885164 0.335403)
(-0.0213768 0.0856765 0.331926)
(-0.0344559 0.080187 0.325081)
(-0.0461138 0.0723283 0.31516)
(-0.0540577 0.0636541 0.302536)
(0.146003 0.173201 0.634746)
(0.12315 0.195898 0.651556)
(0.0918737 0.215877 0.664093)
(0.056806 0.229695 0.672551)
(0.0192227 0.236816 0.676776)
(-0.0192227 0.236816 0.676776)
(-0.0568061 0.229695 0.672551)
(-0.0918737 0.215877 0.664093)
(-0.12315 0.195898 0.651556)
(-0.146003 0.173201 0.634746)
(0.185237 0.220054 0.802764)
(0.154353 0.24555 0.815991)
(0.114297 0.267843 0.825225)
(0.0702696 0.283039 0.831292)
(0.0237112 0.290807 0.834259)
(-0.0237112 0.290807 0.834259)
(-0.0702697 0.283039 0.831292)
(-0.114297 0.267843 0.825225)
(-0.154353 0.24555 0.815991)
(-0.185237 0.220054 0.802764)
(0.19315 0.229213 0.886176)
(0.159197 0.252132 0.894614)
(0.117012 0.272249 0.8999)
(0.0715432 0.285754 0.903238)
(0.0240754 0.292598 0.904816)
(-0.0240754 0.292598 0.904816)
(-0.0715432 0.285754 0.903238)
(-0.117012 0.272249 0.8999)
(-0.159197 0.252132 0.894614)
(-0.19315 0.229213 0.886176)
(0.186723 0.221332 0.925517)
(0.152452 0.240154 0.929915)
(0.111319 0.256844 0.932054)
(0.0677244 0.267897 0.933273)
(0.0227354 0.273449 0.933795)
(-0.0227354 0.273449 0.933795)
(-0.0677244 0.267897 0.933273)
(-0.111319 0.256844 0.932054)
(-0.152452 0.240154 0.929915)
(-0.186723 0.221332 0.925517)
(0.173227 0.205104 0.941412)
(0.140196 0.219559 0.94285)
(0.101755 0.23258 0.942809)
(0.0616189 0.241107 0.942594)
(0.0206396 0.245349 0.942415)
(-0.0206396 0.245349 0.942415)
(-0.061619 0.241107 0.942594)
(-0.101755 0.23258 0.942809)
(-0.140196 0.219559 0.94285)
(-0.173227 0.205104 0.941412)
(0.156194 0.184596 0.945059)
(0.12531 0.194847 0.944518)
(0.0904381 0.2043 0.943124)
(0.0545252 0.210446 0.942037)
(0.0182248 0.213478 0.941443)
(-0.0182249 0.213478 0.941443)
(-0.0545253 0.210446 0.942037)
(-0.0904381 0.2043 0.943124)
(-0.12531 0.194847 0.944518)
(-0.156194 0.184596 0.945059)
(0.137768 0.162326 0.942704)
(0.109562 0.168758 0.940954)
(0.0786648 0.174924 0.93883)
(0.0472385 0.178942 0.93729)
(0.0157589 0.180918 0.936488)
(-0.015759 0.180918 0.936488)
(-0.0472386 0.178942 0.93729)
(-0.0786649 0.174924 0.93883)
(-0.109562 0.168758 0.940954)
(-0.137768 0.162326 0.942704)
(0.119285 0.13987 0.937816)
(0.0941163 0.14293 0.93538)
(0.0672621 0.14618 0.932951)
(0.0402516 0.148386 0.931247)
(0.0134053 0.149485 0.930379)
(-0.0134055 0.149485 0.930379)
(-0.0402517 0.148386 0.931247)
(-0.0672622 0.14618 0.932951)
(-0.0941164 0.14293 0.93538)
(-0.119285 0.13987 0.937816)
(0.101708 0.11827 0.932338)
(0.0799214 0.117322 0.929537)
(0.0567276 0.118417 0.927048)
(0.0338253 0.119281 0.925359)
(0.0112465 0.119729 0.924508)
(-0.0112467 0.119729 0.924508)
(-0.0338255 0.119281 0.925359)
(-0.0567278 0.118417 0.927048)
(-0.0799215 0.117322 0.929537)
(-0.101708 0.11827 0.932337)
(0.00958615 0.012283 0.249344)
(0.00802661 0.0151003 0.260805)
(0.00606193 0.0173445 0.270196)
(0.00383249 0.0188812 0.276735)
(0.00131113 0.0196807 0.280082)
(-0.00131114 0.0196807 0.280082)
(-0.0038325 0.0188812 0.276735)
(-0.00606194 0.0173445 0.270196)
(-0.00802663 0.0151003 0.260805)
(-0.00958616 0.012283 0.249344)
(0.0432914 0.0526381 0.583976)
(0.0369934 0.0631818 0.603923)
(0.0282356 0.0721371 0.619929)
(0.0178151 0.0784455 0.630931)
(0.0060914 0.0817461 0.636513)
(-0.00609142 0.0817461 0.636513)
(-0.0178151 0.0784455 0.630931)
(-0.0282357 0.0721371 0.619929)
(-0.0369934 0.0631818 0.603923)
(-0.0432914 0.0526381 0.583976)
(0.0748093 0.0898132 0.805303)
(0.0634363 0.105767 0.826045)
(0.0480864 0.119332 0.842297)
(0.030128 0.128821 0.853309)
(0.0102651 0.133752 0.858842)
(-0.0102651 0.133752 0.858842)
(-0.030128 0.128821 0.853309)
(-0.0480864 0.119332 0.842297)
(-0.0634363 0.105767 0.826045)
(-0.0748093 0.0898132 0.805303)
(0.0986129 0.117559 0.948871)
(0.0827756 0.136046 0.966731)
(0.0622364 0.151673 0.980317)
(0.0387265 0.162487 0.989362)
(0.0131491 0.168064 0.993853)
(-0.0131491 0.168064 0.993853)
(-0.0387265 0.162487 0.989362)
(-0.0622365 0.151673 0.980317)
(-0.0827757 0.136046 0.966731)
(-0.098613 0.117559 0.948871)
(0.113366 0.134436 1.03875)
(0.094191 0.153057 1.05225)
(0.0702605 0.168674 1.06212)
(0.0434425 0.179361 1.06852)
(0.0147033 0.184829 1.07165)
(-0.0147034 0.184829 1.07165)
(-0.0434426 0.179361 1.06852)
(-0.0702606 0.168674 1.06212)
(-0.094191 0.153057 1.05225)
(-0.113366 0.134436 1.03875)
(0.120061 0.141714 1.09174)
(0.0987577 0.1588 1.10063)
(0.0731148 0.172985 1.10673)
(0.044941 0.182591 1.11053)
(0.0151656 0.187466 1.11233)
(-0.0151657 0.187466 1.11233)
(-0.0449411 0.182591 1.11053)
(-0.0731149 0.172985 1.10673)
(-0.0987578 0.1588 1.10063)
(-0.120061 0.141714 1.09174)
(0.120252 0.141292 1.11991)
(0.0979376 0.155796 1.12464)
(0.0719933 0.167673 1.12746)
(0.0440103 0.175639 1.12903)
(0.014811 0.179653 1.12971)
(-0.0148111 0.179653 1.12971)
(-0.0440104 0.175639 1.12903)
(-0.0719934 0.167673 1.12746)
(-0.0979377 0.155796 1.12464)
(-0.120252 0.141292 1.11991)
(0.115498 0.135043 1.13195)
(0.093148 0.146382 1.13329)
(0.0680244 0.155487 1.13354)
(0.0413805 0.161552 1.13341)
(0.0138921 0.164594 1.13324)
(-0.0138922 0.164594 1.13324)
(-0.0413807 0.161552 1.13341)
(-0.0680245 0.155487 1.13354)
(-0.0931481 0.146382 1.13329)
(-0.115498 0.135043 1.13195)
(0.107196 0.124571 1.13403)
(0.0856953 0.132472 1.13283)
(0.0622127 0.138634 1.13127)
(0.037682 0.142759 1.12996)
(0.0126233 0.14483 1.12921)
(-0.0126235 0.14483 1.12921)
(-0.0376821 0.142759 1.12996)
(-0.0622129 0.138634 1.13127)
(-0.0856954 0.132472 1.13283)
(-0.107196 0.124571 1.13403)
(0.0967007 0.111708 1.13056)
(0.0768804 0.114999 1.12755)
(0.0554023 0.1184 1.12484)
(0.0334084 0.120734 1.12283)
(0.0111684 0.121912 1.12176)
(-0.0111686 0.121912 1.12176)
(-0.0334086 0.120734 1.12283)
(-0.0554025 0.1184 1.12484)
(-0.0768806 0.114999 1.12755)
(-0.0967009 0.111708 1.13056)
(0.000732169 0.00077545 0.162265)
(0.00079063 0.000997367 0.170707)
(0.000631748 0.00129385 0.177747)
(0.000427535 0.00152084 0.182733)
(0.000150068 0.00164802 0.185314)
(-0.000150076 0.00164802 0.185314)
(-0.000427544 0.00152084 0.182733)
(-0.000631758 0.00129385 0.177748)
(-0.000790641 0.00099736 0.170707)
(-0.000732182 0.000775439 0.162265)
(0.0124749 0.0144156 0.440031)
(0.0112882 0.0175336 0.459244)
(0.00885547 0.0205296 0.475007)
(0.00569135 0.0227499 0.486062)
(0.00196218 0.0239439 0.491747)
(-0.0019622 0.0239439 0.491747)
(-0.00569137 0.0227499 0.486062)
(-0.00885549 0.0205296 0.475007)
(-0.0112883 0.0175336 0.459244)
(-0.0124749 0.0144155 0.440031)
(0.0275551 0.0320459 0.66457)
(0.0243619 0.0382852 0.689005)
(0.0189086 0.044046 0.708693)
(0.0120304 0.0482512 0.722357)
(0.0041284 0.0504877 0.729337)
(-0.00412844 0.0504877 0.729337)
(-0.0120305 0.0482512 0.722357)
(-0.0189086 0.044046 0.708693)
(-0.0243619 0.0382852 0.689005)
(-0.0275551 0.0320458 0.66457)
(0.0428504 0.0499643 0.838575)
(0.0372679 0.0587136 0.863891)
(0.0286443 0.0666034 0.883867)
(0.0180801 0.0722793 0.897561)
(0.00618057 0.0752698 0.904504)
(-0.00618062 0.0752698 0.904504)
(-0.0180802 0.0722793 0.897561)
(-0.0286444 0.0666034 0.883867)
(-0.037268 0.0587136 0.863891)
(-0.0428505 0.0499642 0.838575)
(0.0554035 0.0646077 0.968395)
(0.047526 0.0747136 0.99168)
(0.0362022 0.0836719 1.0096)
(0.0226927 0.0900325 1.02171)
(0.00773106 0.0933552 1.0278)
(-0.00773113 0.0933552 1.0278)
(-0.0226927 0.0900325 1.02171)
(-0.0362023 0.0836719 1.0096)
(-0.0475261 0.0747135 0.99168)
(-0.0554036 0.0646077 0.968395)
(0.0640792 0.0746008 1.06166)
(0.0542916 0.0848977 1.08125)
(0.0410122 0.0938913 1.0959)
(0.0255466 0.100204 1.10562)
(0.00867651 0.103475 1.11045)
(-0.0086766 0.103475 1.11045)
(-0.0255467 0.100204 1.10562)
(-0.0410123 0.0938913 1.0959)
(-0.0542917 0.0848976 1.08125)
(-0.0640793 0.0746008 1.06166)
(0.0687785 0.0798414 1.12591)
(0.0576021 0.0893697 1.14116)
(0.0431747 0.0975668 1.15216)
(0.0267384 0.103263 1.1593)
(0.00905546 0.106195 1.1628)
(-0.00905557 0.106195 1.1628)
(-0.0267385 0.103263 1.1593)
(-0.0431748 0.0975667 1.15216)
(-0.0576022 0.0893697 1.14116)
(-0.0687786 0.0798414 1.12591)
(0.0698657 0.0807791 1.16801)
(0.0578701 0.0888284 1.17898)
(0.0430611 0.0956305 1.18655)
(0.0265269 0.100322 1.19131)
(0.00896035 0.102725 1.1936)
(-0.00896049 0.102725 1.1936)
(-0.0265271 0.100322 1.19131)
(-0.0430613 0.0956305 1.18655)
(-0.0578702 0.0888283 1.17898)
(-0.0698658 0.0807791 1.16801)
(0.0679395 0.0781004 1.19384)
(0.055707 0.0841929 1.20106)
(0.0411629 0.0892097 1.20575)
(0.0252298 0.0926674 1.20856)
(0.0085008 0.0944347 1.20986)
(-0.00850096 0.0944347 1.20986)
(-0.0252299 0.0926674 1.20856)
(-0.041163 0.0892097 1.20575)
(-0.0557071 0.0841929 1.20106)
(-0.0679396 0.0781004 1.19384)
(0.0637987 0.0729661 1.20819)
(0.0518537 0.0761492 1.21249)
(0.0379644 0.0792213 1.215)
(0.0231375 0.0813494 1.21636)
(0.00777456 0.0824353 1.21694)
(-0.00777474 0.0824353 1.21694)
(-0.0231377 0.0813494 1.21636)
(-0.0379645 0.0792213 1.215)
(-0.0518539 0.0761492 1.21249)
(-0.0637989 0.0729661 1.20819)
(0.000553703 0.000742903 0.151057)
(0.000424109 0.000930355 0.158492)
(0.000286045 0.00105836 0.164559)
(0.000173497 0.00113146 0.168827)
(5.77118e-05 0.00116689 0.17103)
(-5.77192e-05 0.00116689 0.17103)
(-0.000173504 0.00113146 0.168827)
(-0.000286053 0.00105836 0.164559)
(-0.000424119 0.00093035 0.158492)
(-0.000553713 0.000742895 0.151057)
(0.00451905 0.00547752 0.415455)
(0.0038788 0.00673776 0.433415)
(0.00295521 0.00780868 0.44794)
(0.00187336 0.00856313 0.458098)
(0.000641706 0.00896067 0.463321)
(-0.000641725 0.00896067 0.463321)
(-0.00187337 0.00856313 0.458098)
(-0.00295523 0.00780867 0.44794)
(-0.00387882 0.00673775 0.433415)
(-0.00451907 0.0054775 0.415455)
(0.0105484 0.0125851 0.637214)
(0.009112 0.015254 0.661376)
(0.00699509 0.017566 0.680679)
(0.00443188 0.0192177 0.694073)
(0.00151822 0.020089 0.700925)
(-0.00151825 0.020089 0.700925)
(-0.00443191 0.0192177 0.694073)
(-0.00699512 0.017566 0.680679)
(-0.00911204 0.015254 0.661376)
(-0.0105484 0.0125851 0.637214)
(0.0174012 0.0206233 0.817297)
(0.0149789 0.0246431 0.843835)
(0.0114792 0.0281305 0.86471)
(0.00724708 0.0306188 0.879054)
(0.00247838 0.0319269 0.886346)
(-0.00247842 0.0319269 0.886346)
(-0.00724712 0.0306188 0.879054)
(-0.0114793 0.0281305 0.86471)
(-0.014979 0.0246431 0.843835)
(-0.0174013 0.0206233 0.817297)
(0.0238302 0.0281118 0.959004)
(0.0203687 0.0331024 0.984975)
(0.0155331 0.0374084 1.00502)
(0.00976054 0.0404615 1.01863)
(0.0033302 0.0420579 1.0255)
(-0.00333025 0.0420579 1.0255)
(-0.0097606 0.0404615 1.01863)
(-0.0155332 0.0374084 1.00502)
(-0.0203687 0.0331024 0.984975)
(-0.0238303 0.0281118 0.959004)
(0.0290661 0.0341428 1.06713)
(0.0246302 0.0395923 1.09055)
(0.0186662 0.0442491 1.10822)
(0.0116693 0.0475242 1.12006)
(0.00397129 0.0492263 1.12598)
(-0.00397136 0.0492263 1.12598)
(-0.0116693 0.0475242 1.12006)
(-0.0186663 0.0442491 1.10822)
(-0.0246303 0.0395923 1.09055)
(-0.0290662 0.0341428 1.06713)
(0.0327146 0.0382615 1.14703)
(0.0274608 0.0436507 1.16679)
(0.0206714 0.0481946 1.18134)
(0.0128555 0.0513632 1.19092)
(0.00436363 0.0530001 1.19567)
(-0.00436371 0.0530001 1.19567)
(-0.0128556 0.0513632 1.19092)
(-0.0206715 0.0481946 1.18134)
(-0.0274609 0.0436507 1.16679)
(-0.0327147 0.0382615 1.14703)
(0.034638 0.040311 1.20403)
(0.0287911 0.0451773 1.21979)
(0.0215264 0.0492098 1.23107)
(0.0133193 0.0520002 1.23838)
(0.00450964 0.0534345 1.24195)
(-0.00450974 0.0534345 1.24195)
(-0.0133194 0.0520002 1.23838)
(-0.0215265 0.0492098 1.23107)
(-0.0287912 0.0451773 1.21979)
(-0.0346381 0.040311 1.20403)
(0.0349 0.040341 1.24307)
(0.0287381 0.044311 1.25504)
(0.0213423 0.0475195 1.26338)
(0.0131393 0.0497328 1.26866)
(0.00443746 0.0508669 1.2712)
(-0.00443757 0.0508669 1.2712)
(-0.0131394 0.0497328 1.26866)
(-0.0213424 0.0475195 1.26338)
(-0.0287382 0.044311 1.25504)
(-0.0349001 0.040341 1.24307)
(0.0337693 0.0388042 1.26835)
(0.0275706 0.0412266 1.27732)
(0.0202938 0.0433906 1.28329)
(0.0124231 0.044884 1.28695)
(0.00418377 0.0456466 1.28867)
(-0.00418389 0.0456466 1.28867)
(-0.0124232 0.044884 1.28695)
(-0.0202939 0.0433906 1.28329)
(-0.0275707 0.0412266 1.27732)
(-0.0337693 0.0388042 1.26835)
(5.88417e-05 5.25913e-05 0.143939)
(6.5252e-05 7.27294e-05 0.15111)
(5.0696e-05 0.000101039 0.156961)
(3.53328e-05 0.000122541 0.161085)
(1.23867e-05 0.000134799 0.163215)
(-1.23924e-05 0.000134799 0.163215)
(-3.53389e-05 0.00012254 0.161085)
(-5.07026e-05 0.000101037 0.156961)
(-6.52592e-05 7.27251e-05 0.15111)
(-5.88493e-05 5.2585e-05 0.143939)
(0.00133974 0.00153178 0.398671)
(0.00121851 0.0018995 0.416258)
(0.000959676 0.00225361 0.430502)
(0.000621368 0.00251907 0.440489)
(0.000214815 0.00266333 0.445631)
(-0.000214828 0.00266333 0.445631)
(-0.000621383 0.00251907 0.440489)
(-0.000959693 0.00225361 0.430502)
(-0.00121853 0.00189949 0.416258)
(-0.00133976 0.00153176 0.398671)
(0.00358585 0.00414816 0.615501)
(0.00320314 0.00506727 0.639584)
(0.00251212 0.00592024 0.658883)
(0.00161332 0.00655456 0.672325)
(0.000556102 0.00689607 0.679215)
(-0.000556125 0.00689607 0.679215)
(-0.00161335 0.00655456 0.672325)
(-0.00251215 0.00592023 0.658883)
(-0.00320317 0.00506726 0.639584)
(-0.00358588 0.00414814 0.615501)
(0.00643244 0.00746864 0.795139)
(0.00567854 0.00899763 0.822187)
(0.00442764 0.0103906 0.843574)
(0.00282651 0.0114169 0.858343)
(0.0009717 0.0119655 0.865874)
(-0.000971732 0.0119655 0.865874)
(-0.00282654 0.0114169 0.858343)
(-0.00442767 0.0103906 0.843574)
(-0.00567858 0.00899762 0.822187)
(-0.00643248 0.00746861 0.795139)
(0.00937045 0.0108835 0.939986)
(0.00818594 0.0129261 0.967173)
(0.00634089 0.0147613 0.988324)
(0.00402542 0.0161005 1.00278)
(0.00138022 0.0168117 1.01011)
(-0.00138026 0.0168117 1.01011)
(-0.00402547 0.0161005 1.00278)
(-0.00634093 0.0147613 0.988324)
(-0.00818599 0.0129261 0.967173)
(-0.0093705 0.0108835 0.939986)
(0.0120075 0.0139242 1.05372)
(0.0103831 0.0162901 1.07902)
(0.00798706 0.0183877 1.09833)
(0.00504285 0.0199041 1.11138)
(0.00172449 0.0207042 1.11795)
(-0.00172454 0.0207042 1.11795)
(-0.0050429 0.0199041 1.11138)
(-0.00798712 0.0183877 1.09833)
(-0.0103832 0.0162901 1.07902)
(-0.0120076 0.0139242 1.05372)
(0.014079 0.0162788 1.14062)
(0.0120506 0.0187369 1.16279)
(0.00920395 0.0208855 1.17938)
(0.00577991 0.0224246 1.19045)
(0.0019713 0.0232319 1.19597)
(-0.00197136 0.0232319 1.19597)
(-0.00577997 0.0224246 1.19045)
(-0.00920401 0.0208855 1.17938)
(-0.0120507 0.0187369 1.16279)
(-0.0140791 0.0162787 1.14062)
(0.0154329 0.0177675 1.20515)
(0.013075 0.0200855 1.22365)
(0.00991544 0.0220782 1.23721)
(0.00619373 0.0234939 1.24615)
(0.00210685 0.0242324 1.25057)
(-0.00210692 0.0242324 1.25057)
(-0.0061938 0.0234939 1.24615)
(-0.00991551 0.0220782 1.23721)
(-0.0130751 0.0200855 1.22365)
(-0.015433 0.0177674 1.20515)
(0.0160278 0.0183318 1.25152)
(0.0134438 0.0203049 1.26641)
(0.0101194 0.0219588 1.27713)
(0.00628611 0.0231263 1.28409)
(0.00213225 0.0237322 1.28749)
(-0.00213233 0.0237322 1.28749)
(-0.00628619 0.0231263 1.28409)
(-0.0101195 0.0219588 1.27713)
(-0.0134439 0.0203049 1.26641)
(-0.0160279 0.0183318 1.25152)
(0.015936 0.0181426 1.2834)
(0.0132229 0.0194408 1.29543)
(0.00985088 0.0206005 1.30378)
(0.00607857 0.0214123 1.30908)
(0.00205498 0.0218306 1.31164)
(-0.00205506 0.0218306 1.31164)
(-0.00607865 0.0214123 1.30908)
(-0.00985096 0.0206005 1.30378)
(-0.0132229 0.0194408 1.29543)
(-0.015936 0.0181426 1.2834)
(6.02648e-05 8.26555e-05 0.142654)
(4.25665e-05 0.000104287 0.149716)
(2.56986e-05 0.000117018 0.155452)
(1.47432e-05 0.000122963 0.15949)
(4.69456e-06 0.000125521 0.161573)
(-4.69948e-06 0.000125521 0.161573)
(-1.47482e-05 0.000122962 0.15949)
(-2.57039e-05 0.000117016 0.155452)
(-4.25718e-05 0.000104284 0.149716)
(-6.02703e-05 8.2651e-05 0.142654)
(0.000569674 0.000692282 0.395045)
(0.000482465 0.000856136 0.412415)
(0.000362903 0.000991193 0.426433)
(0.000228775 0.00108493 0.436253)
(7.80836e-05 0.00113409 0.441305)
(-7.80953e-05 0.00113409 0.441305)
(-0.000228787 0.00108493 0.436253)
(-0.000362916 0.000991188 0.426433)
(-0.000482479 0.000856129 0.412415)
(-0.000569688 0.000692272 0.395045)
(0.00147656 0.00176111 0.610443)
(0.00127493 0.00215507 0.634352)
(0.00097839 0.00249376 0.653461)
(0.000620614 0.00273666 0.666762)
(0.000212684 0.00286528 0.673578)
(-0.000212703 0.00286528 0.673578)
(-0.000620634 0.00273666 0.666762)
(-0.00097841 0.00249376 0.653461)
(-0.00127495 0.00215506 0.634352)
(-0.00147658 0.0017611 0.610443)
(0.00265571 0.00314355 0.789918)
(0.00230041 0.00380519 0.816982)
(0.00177275 0.00438114 0.838347)
(0.0011245 0.00479709 0.8531)
(0.000385468 0.0050175 0.860624)
(-0.000385494 0.00501749 0.860624)
(-0.00112453 0.00479709 0.8531)
(-0.00177277 0.00438114 0.838347)
(-0.00230044 0.00380518 0.816982)
(-0.00265574 0.00314353 0.789918)
(0.00393067 0.00462958 0.935875)
(0.00339564 0.00553652 0.963366)
(0.00261327 0.00632688 0.984743)
(0.00165372 0.00689691 0.999365)
(0.000566256 0.00719817 1.00678)
(-0.000566289 0.00719817 1.00678)
(-0.00165376 0.00689691 0.999365)
(-0.00261331 0.00632688 0.984743)
(-0.00339568 0.00553651 0.963366)
(-0.0039307 0.00462956 0.935875)
(0.00514305 0.0060312 1.05179)
(0.00441797 0.00711539 1.07771)
(0.0033868 0.00805546 1.09752)
(0.00213553 0.00873019 1.11094)
(0.00072995 0.00908531 1.1177)
(-0.000729989 0.00908531 1.1177)
(-0.00213557 0.00873018 1.11094)
(-0.00338684 0.00805546 1.09752)
(-0.00441801 0.00711538 1.07771)
(-0.00514309 0.00603118 1.05179)
(0.00616443 0.00719689 1.14163)
(0.00525629 0.00836202 1.16473)
(0.00400833 0.0093628 1.18207)
(0.00251674 0.0100765 1.19367)
(0.00085844 0.0104504 1.19948)
(-0.000858485 0.0104504 1.19948)
(-0.00251679 0.0100765 1.19367)
(-0.00400837 0.00936279 1.18207)
(-0.00525634 0.00836201 1.16473)
(-0.00616448 0.00719687 1.14163)
(0.00690173 0.00801561 1.20953)
(0.00583568 0.00915358 1.22921)
(0.00442388 0.0101183 1.24373)
(0.00276496 0.0108015 1.25334)
(0.000940931 0.0111577 1.25811)
(-0.000940981 0.0111577 1.25811)
(-0.00276501 0.0108015 1.25334)
(-0.00442393 0.0101183 1.24373)
(-0.00583573 0.00915357 1.22921)
(-0.00690177 0.0080156 1.20953)
(0.00730682 0.00842253 1.2594)
(0.00612452 0.00942861 1.27566)
(0.00461237 0.0102634 1.28748)
(0.00286817 0.0108514 1.2952)
(0.000973515 0.0111564 1.29901)
(-0.000973569 0.0111564 1.29901)
(-0.00286822 0.0108514 1.2952)
(-0.00461242 0.0102634 1.28748)
(-0.00612456 0.00942861 1.27566)
(-0.00730687 0.00842252 1.2594)
(0.00738711 0.00846571 1.29459)
(0.00613125 0.00916624 1.30816)
(0.00457348 0.0097815 1.3177)
(0.00282625 0.0102116 1.32382)
(0.00095623 0.0104333 1.3268)
(-0.000956283 0.0104333 1.3268)
(-0.00282631 0.0102116 1.32382)
(-0.00457353 0.00978151 1.3177)
(-0.0061313 0.00916625 1.30816)
(-0.00738715 0.00846571 1.29459)
(4.46372e-06 3.2133e-06 0.141754)
(4.88639e-06 5.09189e-06 0.148783)
(3.39262e-06 7.69444e-06 0.154492)
(2.49847e-06 9.55721e-06 0.158511)
(8.66213e-07 1.0646e-05 0.160586)
(-8.70188e-07 1.06457e-05 0.160586)
(-2.50252e-06 9.55643e-06 0.158511)
(-3.39673e-06 7.69293e-06 0.154492)
(-4.89049e-06 5.08966e-06 0.148783)
(-4.46765e-06 3.21013e-06 0.141754)
(0.000175948 0.000201499 0.392702)
(0.000158095 0.000251252 0.410002)
(0.00012354 0.000297872 0.423964)
(7.98485e-05 0.0003326 0.433748)
(2.75594e-05 0.000351486 0.438783)
(-2.75688e-05 0.000351485 0.438783)
(-7.98581e-05 0.000332598 0.433748)
(-0.000123549 0.000297868 0.423964)
(-0.000158104 0.000251246 0.410002)
(-0.000175958 0.000201492 0.392702)
(0.00051134 0.000591878 0.607126)
(0.000455344 0.000728783 0.630976)
(0.000356901 0.000854243 0.650042)
(0.000229471 0.000947791 0.663319)
(7.91307e-05 0.000998316 0.670125)
(-7.91455e-05 0.000998315 0.670125)
(-0.000229486 0.000947789 0.663319)
(-0.000356917 0.000854238 0.650042)
(-0.00045536 0.000728775 0.630976)
(-0.000511355 0.000591867 0.607126)
(0.000975505 0.00113222 0.786182)
(0.000862991 0.00137815 0.813253)
(0.000675201 0.0016013 0.834635)
(0.000432507 0.001767 0.849411)
(0.000148942 0.00185607 0.85695)
(-0.000148962 0.00185607 0.85695)
(-0.000432527 0.00176699 0.849411)
(-0.000675222 0.00160129 0.834636)
(-0.000863012 0.00137814 0.813253)
(-0.000975525 0.0011322 0.786182)
(0.00150132 0.00174189 0.932283)
(0.0013191 0.00209437 0.959891)
(0.00102812 0.00241157 0.981383)
(0.00065604 0.00264573 0.9961)
(0.000225532 0.00277102 1.00357)
(-0.000225556 0.00277102 1.00357)
(-0.000656065 0.00264572 0.9961)
(-0.00102815 0.00241157 0.981383)
(-0.00131913 0.00209436 0.959891)
(-0.00150135 0.00174188 0.932283)
(0.00202336 0.00234273 1.04884)
(0.00176445 0.00277871 1.07502)
(0.00136837 0.00316748 1.09506)
(0.000869491 0.00345253 1.10865)
(0.000298314 0.00360431 1.11551)
(-0.000298342 0.00360431 1.11551)
(-0.00086952 0.00345253 1.10865)
(-0.0013684 0.00316747 1.09506)
(-0.00176448 0.0027787 1.07502)
(-0.00202339 0.00234272 1.04884)
(0.00248439 0.00286695 1.13973)
(0.00214874 0.00334875 1.16322)
(0.00165681 0.00377371 1.1809)
(0.00104803 0.00408303 1.19277)
(0.000358768 0.00424689 1.19871)
(-0.0003588 0.00424689 1.19871)
(-0.00104806 0.00408302 1.19277)
(-0.00165685 0.0037737 1.1809)
(-0.00214877 0.00334874 1.16322)
(-0.00248442 0.00286694 1.13973)
(0.00283938 0.00326092 1.20896)
(0.00243436 0.00374303 1.22914)
(0.0018653 0.00416252 1.24411)
(0.00117422 0.00446545 1.25404)
(0.000400987 0.00462507 1.25899)
(-0.000401022 0.00462507 1.25899)
(-0.00117425 0.00446545 1.25404)
(-0.00186533 0.00416251 1.24411)
(-0.00243439 0.00374302 1.22914)
(-0.00283941 0.0032609 1.20896)
(0.00306205 0.00349118 1.26027)
(0.00260112 0.00392752 1.27714)
(0.00197878 0.00429831 1.28948)
(0.00123874 0.00456384 1.29759)
(0.000421816 0.00470283 1.30159)
(-0.000421853 0.00470283 1.30159)
(-0.00123878 0.00456384 1.29759)
(-0.00197882 0.0042983 1.28948)
(-0.00260115 0.00392752 1.27714)
(-0.00306209 0.00349117 1.26027)
(0.00314881 0.00357573 1.29691)
(0.00264389 0.00389105 1.31119)
(0.00198983 0.00416849 1.3213)
(0.00123684 0.00436447 1.32783)
(0.00041964 0.00446611 1.33101)
(-0.000419679 0.00446611 1.33101)
(-0.00123688 0.00436447 1.32783)
(-0.00198986 0.00416849 1.3213)
(-0.00264393 0.00389105 1.31119)
(-0.00314884 0.00357572 1.29691)
(8.15987e-06 1.17982e-05 0.141581)
(5.11344e-06 1.49937e-05 0.148595)
(2.63272e-06 1.6548e-05 0.154288)
(1.35692e-06 1.70822e-05 0.158296)
(3.93714e-07 1.72502e-05 0.160365)
(-3.96763e-07 1.725e-05 0.160365)
(-1.35997e-06 1.70816e-05 0.158296)
(-2.6358e-06 1.65469e-05 0.154288)
(-5.11648e-06 1.49921e-05 0.148595)
(-8.16268e-06 1.17958e-05 0.141581)
(8.34119e-05 0.000102434 0.392161)
(6.92696e-05 0.000127019 0.409426)
(5.13292e-05 0.000146442 0.423352)
(3.21016e-05 0.000159652 0.433108)
(1.09035e-05 0.00016651 0.438128)
(-1.09106e-05 0.000166509 0.438128)
(-3.21087e-05 0.000159651 0.433108)
(-5.13364e-05 0.000146439 0.423352)
(-6.92767e-05 0.000127015 0.409426)
(-8.34185e-05 0.000102429 0.392161)
(0.000225309 0.000269786 0.606306)
(0.000193185 0.00033156 0.630119)
(0.000147574 0.000383717 0.649147)
(9.34116e-05 0.000420952 0.662395)
(3.19695e-05 0.000440641 0.669186)
(-3.19807e-05 0.000440641 0.669186)
(-9.34229e-05 0.00042095 0.662395)
(-0.000147585 0.000383713 0.649147)
(-0.000193196 0.000331554 0.630119)
(-0.000225319 0.000269778 0.606306)
(0.000420157 0.000498 0.785252)
(0.000363515 0.000606522 0.812308)
(0.000280125 0.000700296 0.833672)
(0.000177809 0.000768158 0.848433)
(6.09673e-05 0.000804197 0.855965)
(-6.09819e-05 0.000804196 0.855965)
(-0.000177824 0.000768155 0.848433)
(-0.00028014 0.000700292 0.833672)
(-0.00036353 0.000606515 0.812308)
(-0.000420171 0.00049799 0.785252)
(0.000644097 0.000758663 0.931444)
(0.000557807 0.000914349 0.959082)
(0.000430506 0.00104988 0.980594)
(0.000273122 0.00114825 0.995327)
(9.36394e-05 0.00120047 1.0028)
(-9.36569e-05 0.00120046 1.0028)
(-0.000273139 0.00114824 0.995327)
(-0.000430524 0.00104987 0.980594)
(-0.000557826 0.000914341 0.959082)
(-0.000644114 0.000758651 0.931444)
(0.000871835 0.00102171 1.0483)
(0.000752756 0.00121637 1.07456)
(0.000579874 0.00138572 1.09468)
(0.00036706 0.0015084 1.10832)
(0.000125713 0.00157336 1.11521)
(-0.000125734 0.00157336 1.11521)
(-0.00036708 0.0015084 1.10832)
(-0.000579895 0.00138572 1.09468)
(-0.000752777 0.00121636 1.07456)
(-0.000871855 0.0010217 1.0483)
(0.00107908 0.00125838 1.13966)
(0.000926635 0.00147687 1.1633)
(0.00071111 0.00166585 1.18111)
(0.00044866 0.00180213 1.19307)
(0.000153411 0.00187403 1.19907)
(-0.000153433 0.00187403 1.19907)
(-0.000448683 0.00180213 1.19307)
(-0.000711133 0.00166584 1.18111)
(-0.000926658 0.00147686 1.1633)
(-0.00107911 0.00125837 1.13966)
(0.00124476 0.00144339 1.20949)
(0.00106151 0.00166605 1.2299)
(0.00081059 0.00185671 1.24504)
(0.000509388 0.00199338 1.25511)
(0.000173822 0.00206516 1.26013)
(-0.000173847 0.00206516 1.26013)
(-0.000509414 0.00199338 1.25511)
(-0.000810615 0.0018567 1.24504)
(-0.00106153 0.00166604 1.2299)
(-0.00124479 0.00144338 1.20949)
(0.00135459 0.00155811 1.26149)
(0.00114607 0.00176377 1.27864)
(0.00086979 0.00193647 1.29121)
(0.000543904 0.00205946 1.29948)
(0.000185127 0.00212368 1.30356)
(-0.000185155 0.00212368 1.30356)
(-0.000543931 0.00205946 1.29948)
(-0.000869817 0.00193647 1.29121)
(-0.0011461 0.00176377 1.27864)
(-0.00135461 0.0015581 1.26149)
(0.00140401 0.0016064 1.29882)
(0.00117572 0.00175885 1.31344)
(0.000883606 0.00189204 1.32382)
(0.000548975 0.00198583 1.33053)
(0.000186225 0.00203441 1.33381)
(-0.000186254 0.00203441 1.33381)
(-0.000549004 0.00198583 1.33053)
(-0.000883633 0.00189204 1.32382)
(-0.00117575 0.00175885 1.31343)
(-0.00140403 0.00160639 1.29882)
(1.72817e-07 3.51864e-08 0.141447)
(1.21063e-07 2.59627e-07 0.148456)
(-4.64265e-08 5.01321e-07 0.154145)
(-2.95987e-09 6.41491e-07 0.15815)
(-5.60622e-09 7.2373e-07 0.160218)
(3.22011e-09 7.23546e-07 0.160218)
(6.25319e-10 6.40937e-07 0.15815)
(4.42037e-08 5.0044e-07 0.154145)
(-1.23052e-07 2.58394e-07 0.148456)
(-1.7465e-07 3.36476e-08 0.141447)
(2.58451e-05 2.98695e-05 0.391797)
(2.28088e-05 3.74757e-05 0.40905)
(1.76184e-05 4.43499e-05 0.422966)
(1.13315e-05 4.94073e-05 0.432716)
(3.89797e-06 5.21445e-05 0.437733)
(-3.90344e-06 5.21441e-05 0.437733)
(-1.13369e-05 4.94061e-05 0.432716)
(-1.76236e-05 4.43478e-05 0.422966)
(-2.28135e-05 3.74728e-05 0.40905)
(-2.58494e-05 2.98661e-05 0.391798)
(7.88287e-05 9.15226e-05 0.605772)
(6.97241e-05 0.000113324 0.629572)
(5.44546e-05 0.000132979 0.648589)
(3.4965e-05 0.000147595 0.661831)
(1.20461e-05 0.000155484 0.668619)
(-1.20547e-05 0.000155483 0.668619)
(-3.49734e-05 0.000147593 0.661831)
(-5.44627e-05 0.000132976 0.648589)
(-6.97317e-05 0.00011332 0.629572)
(-7.88358e-05 9.15174e-05 0.605772)
(0.000155286 0.000180342 0.784624)
(0.000137115 0.000220891 0.811675)
(0.000107265 0.000257389 0.833035)
(6.87514e-05 0.000284541 0.847796)
(2.36808e-05 0.00029916 0.855328)
(-2.36919e-05 0.000299159 0.855328)
(-6.87624e-05 0.000284538 0.847796)
(-0.000107275 0.000257385 0.833035)
(-0.000137125 0.000220886 0.811675)
(-0.000155296 0.000180336 0.784624)
(0.000245772 0.000284963 0.930808)
(0.000216173 0.000345073 0.958457)
(0.000168836 0.000398993 0.979981)
(0.000107947 0.000438987 0.994724)
(3.71449e-05 0.000460455 1.00221)
(-3.71582e-05 0.000460454 1.00221)
(-0.00010796 0.000438984 0.994724)
(-0.000168849 0.000398988 0.979981)
(-0.000216185 0.000345067 0.958457)
(-0.000245784 0.000284956 0.930808)
(0.000339939 0.000393023 1.04774)
(0.000297393 0.000469871 1.07404)
(0.000231476 0.000538406 1.09419)
(0.000147528 0.000589003 1.10786)
(5.06904e-05 0.000616061 1.11475)
(-5.07057e-05 0.00061606 1.11475)
(-0.000147543 0.000589 1.10786)
(-0.000231491 0.000538401 1.09419)
(-0.000297407 0.000469865 1.07404)
(-0.000339953 0.000393016 1.04774)
(0.000427642 0.000492503 1.13926)
(0.000371654 0.000580209 1.16296)
(0.000287947 0.000657778 1.18083)
(0.000182828 0.000714705 1.19283)
(6.27035e-05 0.000745018 1.19885)
(-6.27206e-05 0.000745017 1.19885)
(-0.000182845 0.000714703 1.19283)
(-0.000287963 0.000657774 1.18083)
(-0.00037167 0.000580203 1.16296)
(-0.000427657 0.000492497 1.13926)
(0.000499874 0.000572666 1.2093)
(0.00043117 0.000663267 1.2298)
(0.000332223 0.000742481 1.24502)
(0.00021002 0.000800181 1.25515)
(7.18697e-05 0.000830747 1.2602)
(-7.18883e-05 0.000830746 1.2602)
(-0.000210039 0.000800179 1.25515)
(-0.000332241 0.000742477 1.24502)
(-0.000431187 0.000663262 1.2298)
(-0.00049989 0.00057266 1.2093)
(0.000550424 0.000625723 1.26156)
(0.000470718 0.000710502 1.27883)
(0.000360211 0.000782928 1.29149)
(0.000226472 0.000835191 1.29983)
(7.72817e-05 0.000862672 1.30396)
(-7.73012e-05 0.000862672 1.30396)
(-0.000226491 0.00083519 1.29983)
(-0.000360231 0.000782925 1.29149)
(-0.000470736 0.000710498 1.27883)
(-0.000550441 0.000625717 1.26156)
(0.000576766 0.000653681 1.29917)
(0.000487361 0.000717809 1.31392)
(0.000368895 0.00077381 1.32442)
(0.000230243 0.000813556 1.33122)
(7.8272e-05 0.000834236 1.33454)
(-7.82919e-05 0.000834236 1.33454)
(-0.000230263 0.000813555 1.33121)
(-0.000368915 0.000773808 1.32442)
(-0.000487381 0.000717807 1.31392)
(-0.000576784 0.000653678 1.29917)
(1.17248e-06 1.82082e-06 0.141422)
(6.09602e-07 2.33736e-06 0.148429)
(2.1551e-07 2.53728e-06 0.154115)
(6.88466e-08 2.56799e-06 0.158119)