/*--------------------------------*- C++ -*----------------------------------*\
| =========                 |                                                 |
| \\      /  F ield         | OpenFOAM: The Open Source CFD Toolbox           |
|  \\    /   O peration     | Version:  2106                                  |
|   \\  /    A nd           | Website:  www.openfoam.com                      |
|    \\/     M anipulation  |                                                 |
\*---------------------------------------------------------------------------*/
FoamFile
{
    version     2.0;
    format      ascii;
    arch        "LSB;label=32;scalar=64";
    class       surfaceScalarField;
    location    "0.45";
    object      phi;
}
// * * * * * * * * * * * * * * * * * * * * * * * * * * * * * * * * * * * * * //

dimensions      [0 3 -1 0 0 0 0];

oriented        oriented;

internalField   nonuniform List<scalar> 
29100
(
0.00118541
0.150862
0.0813182
-3.87965e-10
0.00145889
0.155747
0.0893637
0.00125191
0.159171
0.0960848
0.000712966
0.161452
0.100895
-2.38163e-09
0.162596
0.103401
-0.000712971
0.162596
0.103401
-0.00125192
0.161452
0.100895
-0.00145889
0.159171
0.0960848
-0.00118542
0.155747
0.0893637
0.150862
0.0813182
-6.14335e-09
0.00237176
0.208733
0.156227
-7.50901e-10
0.00329447
0.213307
0.169818
0.00293827
0.216368
0.180931
0.0016997
0.218275
0.18879
-6.82436e-09
0.21921
0.19285
-0.00169971
0.21921
0.19285
-0.00293828
0.218275
0.18879
-0.00329449
0.216368
0.180931
-0.00237177
0.213307
0.169818
0.208733
0.156227
-1.55922e-08
0.00302305
0.219692
0.185594
-1.09158e-09
0.00427565
0.222582
0.20069
0.00383774
0.224457
0.212842
0.00222264
0.225474
0.221359
-1.09561e-08
0.225944
0.225736
-0.00222266
0.225944
0.225736
-0.00383776
0.225474
0.221359
-0.00427567
0.224457
0.212842
-0.00302307
0.222582
0.20069
0.219692
0.185594
-2.36918e-08
0.00344911
0.206213
0.192711
-1.41372e-09
0.00481141
0.207413
0.20794
0.00430933
0.208131
0.220044
0.00249122
0.208334
0.228467
-1.52271e-08
0.208386
0.232777
-0.00249125
0.208386
0.232777
-0.00430936
0.208334
0.228467
-0.00481144
0.20813
0.220044
-0.00344914
0.207413
0.20794
0.206213
0.192711
-3.07991e-08
0.00367388
0.181044
0.187282
-1.7888e-09
0.00505508
0.180945
0.202137
0.00451495
0.180785
0.213823
0.00260655
0.180411
0.221907
-1.99384e-08
0.180172
0.22603
-0.00260659
0.180172
0.22603
-0.00451499
0.180411
0.221907
-0.00505512
0.180785
0.213823
-0.00367391
0.180945
0.202137
0.181044
0.187282
-3.73202e-08
0.00375288
0.151509
0.174674
-2.20999e-09
0.00511214
0.150553
0.188999
0.00455603
0.149824
0.200176
0.00262862
0.149114
0.207867
-2.53496e-08
0.148713
0.211779
-0.00262867
0.148713
0.211779
-0.00455608
0.149114
0.207867
-0.00511219
0.149824
0.200176
-0.00375293
0.150553
0.188999
0.151509
0.174674
-4.34209e-08
0.00375411
0.121713
0.158039
-2.74188e-09
0.00507713
0.120279
0.171833
0.00451753
0.119239
0.182525
0.00260611
0.118389
0.189846
-3.16554e-08
0.11793
0.193561
-0.00260617
0.11793
0.193561
-0.00451759
0.118389
0.189846
-0.00507719
0.119239
0.182525
-0.00375416
0.120279
0.171833
0.121713
0.158039
-4.92799e-08
0.00371242
0.0938783
0.139225
-3.42258e-09
0.00501278
0.0922318
0.152545
0.00445981
0.0910836
0.162811
0.00257389
0.0902417
0.169809
-3.89216e-08
0.0898064
0.173352
-0.00257396
0.0898064
0.173352
-0.00445989
0.0902417
0.169809
-0.00501285
0.0910836
0.162811
-0.00371248
0.0922317
0.152545
0.0938783
0.139225
-5.48563e-08
0.00367289
0.0691137
0.1193
-4.13491e-09
0.00498402
0.0674236
0.132212
0.00443563
0.0663425
0.142114
0.00255912
0.0656266
0.148835
-4.70307e-08
0.065272
0.152229
-0.00255921
0.065272
0.152229
-0.00443572
0.0656266
0.148835
-0.0049841
0.0663425
0.142114
-0.00367296
0.0674236
0.132212
0.0691136
0.1193
-6.03249e-08
0.00388629
0.0988739
-4.44705e-09
0.0476668
0.00516455
0.11144
0.046336
0.00453981
0.121028
0.0454864
0.00259925
0.127506
0.0449707
-5.5281e-08
0.130771
0.0447175
-0.00259935
0.130771
0.0447175
-0.00453991
0.127506
0.0449707
-0.00516464
0.121028
0.0454864
-0.00388636
0.11144
0.046336
0.0988739
-6.42601e-08
0.0476668
-0.000241497
0.0365361
0.0450236
-5.14776e-10
-0.00024355
0.0397086
0.0496572
-0.000171321
0.0423898
0.0536227
-8.53574e-05
0.0443068
0.0565027
-3.80795e-09
0.0452984
0.058017
8.53498e-05
0.0452984
0.058017
0.000171312
0.0443068
0.0565027
0.000243542
0.0423898
0.0536227
0.000241488
0.0397086
0.0496572
0.0365361
0.0450236
-9.4487e-09
6.16896e-05
0.0805551
0.112147
-1.10348e-09
0.000249141
0.0863214
0.123018
0.000298908
0.0911167
0.132154
0.000200534
0.0944755
0.138719
-1.17971e-08
0.0962006
0.142149
-0.000200557
0.0962006
0.142149
-0.000298933
0.0944755
0.138719
-0.000249166
0.0911167
0.132154
-6.17148e-05
0.0863214
0.123018
0.0805551
0.112147
-2.57262e-08
0.000607866
0.11178
0.153762
-1.78766e-09
0.00102327
0.118431
0.168165
0.00100173
0.12389
0.18009
0.000612369
0.127638
0.188586
-1.984e-08
0.129548
0.193001
-0.000612409
0.129548
0.193001
-0.00100177
0.127638
0.188586
-0.00102331
0.12389
0.18009
-0.000607906
0.118431
0.168165
0.11178
0.153762
-4.01232e-08
0.00122131
0.127951
0.175318
-2.43935e-09
0.00185846
0.134251
0.191482
0.00174877
0.139354
0.204689
0.00104444
0.142783
0.214025
-2.82099e-08
0.144514
0.218856
-0.00104449
0.144514
0.218856
-0.00174882
0.142783
0.214025
-0.00185851
0.139354
0.204689
-0.00122136
0.134251
0.191482
0.127951
0.175318
-5.27449e-08
0.00181881
0.130878
0.182536
-3.0904e-09
0.00264847
0.136147
0.199412
0.00244711
0.140344
0.213034
0.00144534
0.143096
0.222596
-3.71809e-08
0.144467
0.227522
-0.00144541
0.144467
0.227522
-0.00244719
0.143096
0.222596
-0.00264854
0.140344
0.213034
-0.00181888
0.136147
0.199412
0.130878
0.182536
-6.39037e-08
0.00235662
0.123648
0.179548
-3.82166e-09
0.0033472
0.127626
0.196529
0.00306015
0.130719
0.210088
0.00179601
0.132685
0.219542
-4.69781e-08
0.133649
0.224394
-0.00179611
0.133649
0.224394
-0.00306024
0.132685
0.219542
-0.00334729
0.130719
0.210088
-0.0023567
0.127626
0.196529
0.123648
0.179548
-7.36781e-08
0.00281209
0.109517
0.169358
-4.87261e-09
0.00393904
0.112214
0.186118
0.00358017
0.114231
0.199372
0.00209397
0.115463
0.208554
-5.76914e-08
0.116054
0.21325
-0.00209408
0.116054
0.21325
-0.00358028
0.115463
0.208554
-0.00393914
0.114231
0.199372
-0.00281218
0.112214
0.186118
0.109517
0.169358
-8.20959e-08
0.00317998
0.0914118
0.15415
-6.26777e-09
0.00443452
0.0929702
0.170535
0.00402181
0.0940736
0.183381
0.0023486
0.0947171
0.192228
-6.90334e-08
0.0950193
0.196735
-0.00234873
0.0950193
0.196735
-0.00402194
0.0947171
0.192228
-0.00443464
0.0940736
0.183381
-0.00318008
0.0929702
0.170535
0.0914118
0.15415
-8.8737e-08
0.00349643
0.0717199
0.135495
-8.09548e-09
0.00488389
0.072341
0.151454
0.00442399
0.0727805
0.163867
0.00257943
0.0730307
0.172366
-8.0209e-08
0.0731475
0.176681
-0.00257958
0.0731475
0.176681
-0.00442414
0.0730307
0.172366
-0.00488401
0.0727805
0.163867
-0.00349654
0.072341
0.151454
0.0717199
0.135495
-9.41357e-08
0.0039119
0.11451
-9.64181e-09
0.0521719
0.00541458
0.130059
0.0522197
0.00486553
0.142049
0.0523085
0.00282078
0.150208
0.0523738
-8.92288e-08
0.154336
0.0524029
-0.00282095
0.154336
0.0524029
-0.00486569
0.150208
0.0523738
-0.00541471
0.142049
0.0523085
-0.00391202
0.130059
0.0522197
0.11451
-9.57353e-08
0.0521718
3.9685e-05
0.00990059
0.0350833
-5.26811e-10
3.56633e-05
0.0109246
0.0387366
2.98979e-05
0.011794
0.0418344
1.65263e-05
0.0124395
0.0440765
-3.97875e-09
0.0127796
0.0452539
-1.65342e-05
0.0127796
0.0452539
-2.9906e-05
0.0124395
0.0440765
-3.56721e-05
0.011794
0.0418344
-3.96942e-05
0.0109246
0.0387366
0.00990059
0.0350833
-9.5928e-09
0.000280042
0.0299744
0.0917929
-1.13238e-09
0.000379784
0.0326488
0.101194
0.000339026
0.0348872
0.109102
0.000197629
0.0365012
0.114799
-1.27568e-08
0.0373443
0.117782
-0.000197654
0.0373443
0.117782
-0.000339052
0.0365012
0.114799
-0.00037981
0.0348872
0.109102
-0.000280068
0.0326488
0.101194
0.0299744
0.0917929
-2.65821e-08
0.000595382
0.0505599
0.132581
-1.92151e-09
0.000843908
0.0544926
0.146073
0.000763936
0.0577397
0.157318
0.000447552
0.0600283
0.165375
-2.16443e-08
0.0612134
0.169579
-0.000447595
0.0612134
0.169579
-0.000763979
0.0600283
0.165375
-0.000843951
0.0577397
0.157318
-0.000595424
0.0544926
0.146073
0.0505599
0.132581
-4.20176e-08
0.000955984
0.0660233
0.158898
-2.74812e-09
0.00137067
0.070498
0.175062
0.00125105
0.0741467
0.188401
0.000734406
0.0766671
0.197903
-3.09742e-08
0.0779602
0.202843
-0.000734468
0.0779602
0.202843
-0.00125111
0.0766671
0.197903
-0.00137073
0.0741467
0.188401
-0.000956041
0.070498
0.175062
0.0660233
0.158898
-5.55584e-08
0.00133686
0.0744322
0.172791
-3.64969e-09
0.00191311
0.0787978
0.190536
0.00175056
0.0823091
0.205034
0.0010279
0.0846868
0.215299
-4.08122e-08
0.0858941
0.220616
-0.00102798
0.0858941
0.220616
-0.00175063
0.0846868
0.215299
-0.00191319
0.0823091
0.205034
-0.00133693
0.0787978
0.190536
0.0744322
0.172791
-6.72173e-08
0.00171793
0.0758544
0.176408
-4.69759e-09
0.0024417
0.079657
0.194946
0.0022332
0.0826615
0.209945
0.00131057
0.0846534
0.220498
-5.11711e-08
0.0856533
0.225945
-0.00131067
0.0856533
0.225945
-0.0022333
0.0846534
0.220498
-0.00244179
0.0826615
0.209945
-0.00171801
0.079657
0.194946
0.0758544
0.176408
-7.69379e-08
0.00207644
0.0713943
0.171741
-6.14785e-09
0.00293303
0.0743865
0.190532
0.00267989
0.0766941
0.205592
0.0015718
0.0781905
0.216125
-6.18948e-08
0.0789326
0.221542
-0.00157192
0.0789326
0.221542
-0.00268
0.0781905
0.216125
-0.00293314
0.0766941
0.205592
-0.00207653
0.0743865
0.190532
0.0713943
0.171741
-8.46178e-08
0.00239685
0.0626144
0.160533
-7.97967e-09
0.00337792
0.064713
0.179227
0.00308492
0.066289
0.194079
0.00180856
0.0672914
0.204403
-7.24041e-08
0.0677837
0.209693
-0.0018087
0.0677837
0.209693
-0.00308506
0.0672914
0.204403
-0.00337804
0.066289
0.194079
-0.00239695
0.0647131
0.179227
0.0626144
0.160533
-8.96883e-08
0.00269191
0.0511668
0.144251
-1.02956e-08
0.00379313
0.0524159
0.162649
0.00345903
0.0533486
0.177142
0.00202514
0.0539395
0.187151
-8.1683e-08
0.0542293
0.19226
-0.0020253
0.0542293
0.19226
-0.00345918
0.0539395
0.187151
-0.00379325
0.0533486
0.177142
-0.00269201
0.0524159
0.162649
0.0511668
0.144251
-9.26541e-08
0.00302293
0.124106
-1.19674e-08
0.0385482
0.00422519
0.142138
0.0391348
0.00383052
0.156186
0.0396055
0.00223332
0.165823
0.0399213
-8.76309e-08
0.170722
0.0400769
-0.00223349
0.170722
0.0400769
-0.00383068
0.165823
0.0399213
-0.00422532
0.156186
0.0396055
-0.00302303
0.142138
0.0391348
0.124106
-9.04836e-08
0.0385482
-3.17207e-05
0.00400042
0.0311146
-4.78408e-10
-4.53041e-05
0.00440485
0.0343453
-3.66593e-05
0.00474828
0.0370775
-2.02502e-05
0.00500356
0.0390566
-3.44838e-09
0.00513727
0.0400964
2.02433e-05
0.00513727
0.0400964
3.66522e-05
0.00500356
0.0390566
4.52964e-05
0.00474828
0.0370775
3.17125e-05
0.00440485
0.0343453
0.00400042
0.0311146
-8.37376e-09
8.13009e-06
0.0123824
0.0834027
-1.13414e-09
1.43439e-05
0.0135655
0.0920272
1.86831e-05
0.0145684
0.0992772
1.36313e-05
0.0152991
0.104508
-1.118e-08
0.0156822
0.10725
-1.36537e-05
0.0156822
0.10725
-1.87059e-05
0.0152991
0.104508
-1.43659e-05
0.0145684
0.0992772
-8.15159e-06
0.0135655
0.0920272
0.0123824
0.0834027
-2.33104e-08
0.000117709
0.0219848
0.122861
-1.97746e-09
0.000178421
0.0239404
0.135637
0.000171356
0.025587
0.146306
0.000104428
0.0267682
0.153973
-1.92534e-08
0.0273848
0.157981
-0.000104466
0.0273848
0.157981
-0.000171394
0.0267682
0.153973
-0.000178459
0.025587
0.146306
-0.000117747
0.0239404
0.135637
0.0219848
0.122861
-3.7358e-08
0.000282625
0.0304038
0.150197
-2.82464e-09
0.000421097
0.032882
0.165982
0.000396813
0.0349478
0.179065
0.000237878
0.0364076
0.188423
-2.76735e-08
0.0371647
0.193301
-0.000237933
0.0371647
0.193301
-0.000396867
0.0364076
0.188423
-0.00042115
0.0349478
0.179065
-0.000282675
0.032882
0.165982
0.0304039
0.150197
-4.95052e-08
0.000487143
0.0361691
0.166538
-3.75392e-09
0.000715383
0.0388351
0.184355
0.0006688
0.0410281
0.199001
0.000398277
0.0425537
0.209423
-3.64301e-08
0.0433388
0.21484
-0.000398349
0.0433388
0.21484
-0.000668871
0.0425538
0.209423
-0.00071545
0.0410281
0.199001
-0.000487205
0.0388351
0.184354
0.0361692
0.166538
-5.97571e-08
0.000715432
0.0386698
0.173192
-4.84769e-09
0.00103761
0.0412129
0.192246
0.000964734
0.0432684
0.207777
0.000572262
0.0446746
0.21877
-4.54129e-08
0.0453918
0.224465
-0.000572352
0.0453918
0.224465
-0.00096482
0.0446746
0.21877
-0.00103769
0.0432685
0.207777
-0.000715504
0.0412129
0.192246
0.0386698
0.173192
-6.80209e-08
0.000950621
0.0379506
0.17151
-6.31013e-09
0.00136669
0.0401384
0.19119
0.00126597
0.0418671
0.207095
0.000749059
0.0430291
0.218288
-5.43817e-08
0.0436163
0.224067
-0.000749165
0.0436163
0.224067
-0.00126607
0.0430291
0.218288
-0.00136678
0.0418671
0.207095
-0.000950701
0.0401384
0.19119
0.0379506
0.17151
-7.41454e-08
0.00118019
0.034499
0.162805
-8.09535e-09
0.00168997
0.0361916
0.182664
0.00156152
0.0374971
0.198578
0.000922148
0.0383606
0.209711
-6.27272e-08
0.0387933
0.215438
-0.000922271
0.0387933
0.215438
-0.00156164
0.0383606
0.209711
-0.00169007
0.0374971
0.198578
-0.00118027
0.0361917
0.182664
0.034499
0.162805
-7.76042e-08
0.00140851
0.0290502
0.148291
-1.03517e-08
0.00201065
0.0302043
0.168035
0.00185086
0.0310807
0.183718
0.00108997
0.0316552
0.194618
-6.94941e-08
0.0319417
0.200202
-0.00109011
0.0319417
0.200202
-0.00185098
0.0316552
0.194618
-0.00201075
0.0310807
0.183718
-0.0014086
0.0302043
0.168035
0.0290503
0.148291
-7.88703e-08
0.00165307
0.129068
-1.21876e-08
0.0224348
0.0023417
0.148559
0.0230942
0.00214273
0.163853
0.0236129
0.00125629
0.174403
0.0239618
-7.28992e-08
0.179784
0.024136
-0.00125643
0.179784
0.024136
-0.00214286
0.174403
0.0239619
-0.00234181
0.163853
0.0236129
-0.00165315
0.148559
0.0230942
0.129068
-7.53538e-08
0.0224348
2.26768e-06
0.00127328
0.0298391
-4.00247e-10
-8.85222e-08
0.00141432
0.0329333
1.74656e-07
0.00153729
0.03554
1.35693e-07
0.00163121
0.0374254
-2.77817e-09
0.00168132
0.0384152
-1.41227e-07
0.00168132
0.0384152
-1.79635e-07
0.00163121
0.0374254
8.24129e-08
0.00153729
0.03554
-2.27403e-06
0.00141432
0.0329333
0.00127328
0.0298391
-6.81871e-09
2.98444e-05
0.00457265
0.0800735
-1.02141e-09
3.82154e-05
0.0050469
0.0883862
3.49643e-05
0.00545495
0.0953628
2.06639e-05
0.00575812
0.100396
-9.08171e-09
0.00591878
0.103034
-2.06821e-05
0.00591878
0.103034
-3.4983e-05
0.00575812
0.100396
-3.82343e-05
0.00545496
0.0953628
-2.98633e-05
0.00504691
0.0883862
0.00457266
0.0800735
-1.91971e-08
8.23661e-05
0.00881474
0.118537
-1.7651e-09
0.00011621
0.00967272
0.130978
0.00010695
0.010404
0.141366
6.33748e-05
0.0109373
0.148837
-1.56894e-08
0.0112184
0.152745
-6.34062e-05
0.0112184
0.152745
-0.000106981
0.0109373
0.148837
-0.000116241
0.010404
0.141366
-8.23965e-05
0.00967273
0.130978
0.00881475
0.118537
-3.04886e-08
0.000159578
0.0129316
0.14592
-2.54889e-09
0.00023108
0.0141031
0.16148
0.000214238
0.0150916
0.174394
0.000127099
0.0158017
0.183645
-2.25544e-08
0.0161734
0.188473
-0.000127144
0.0161734
0.188473
-0.000214282
0.0158017
0.183645
-0.000231123
0.0150916
0.174394
-0.000159619
0.0141031
0.16148
0.0129316
0.14592
-4.03552e-08
0.00025855
0.0161281
0.163083
-3.41413e-09
0.000376114
0.0174731
0.180867
0.00034959
0.0185944
0.195524
0.000207404
0.0193879
0.205979
-2.95917e-08
0.0198003
0.211421
-0.000207463
0.0198003
0.211421
-0.000349647
0.0193879
0.205979
-0.000376168
0.0185944
0.195524
-0.0002586
0.0174731
0.180867
0.0161281
0.163083
-4.86877e-08
0.000374058
0.0179366
0.171009
-4.41657e-09
0.000542597
0.0192963
0.190254
0.000504277
0.0204124
0.205997
0.000298985
0.0211902
0.217173
-3.66636e-08
0.0215912
0.222973
-0.000299057
0.0215912
0.222973
-0.000504346
0.0211903
0.217173
-0.000542661
0.0204124
0.205997
-0.000374116
0.0192963
0.190254
0.0179366
0.171009
-5.53187e-08
0.000498929
0.0182023
0.170745
-5.70142e-09
0.000720754
0.0194358
0.190829
0.000669181
0.0204292
0.207129
0.000396403
0.0211106
0.21864
-4.35331e-08
0.0214587
0.224596
-0.000396488
0.0214587
0.224596
-0.000669261
0.0211106
0.21864
-0.000720828
0.0204292
0.207129
-0.000498993
0.0194359
0.190829
0.0182023
0.170745
-6.0099e-08
0.00062676
0.0170275
0.163353
-7.22307e-09
0.000902993
0.0180334
0.18379
0.00083709
0.0188267
0.200246
0.000495222
0.0193627
0.211801
-4.96947e-08
0.0196341
0.217758
-0.000495319
0.0196341
0.217758
-0.000837181
0.0193627
0.211801
-0.000903073
0.0188268
0.200246
-0.000626828
0.0180335
0.18379
0.0170276
0.163353
-6.26337e-08
0.00075766
0.0146972
0.149864
-9.08509e-09
0.00108693
0.0154259
0.170313
0.00100381
0.0159898
0.186638
0.000592337
0.0163659
0.198026
-5.44173e-08
0.0165552
0.203873
-0.000592443
0.0165552
0.203873
-0.00100391
0.0163659
0.198026
-0.00108701
0.0159898
0.186638
-0.000757729
0.015426
0.170313
0.0146972
0.149864
-6.32466e-08
0.000888429
0.131266
-1.05521e-08
0.0116107
0.00126667
0.15155
0.0120565
0.00116512
0.167538
0.0124065
0.000685391
0.178605
0.0126437
-5.64385e-08
0.184262
0.012763
-0.0006855
0.184262
0.012763
-0.00116522
0.178605
0.0126437
-0.00126676
0.167538
0.0124065
-0.000888496
0.15155
0.0120565
0.131266
-6.00622e-08
0.0116107
-5.46553e-06
0.00054515
0.0292994
-3.17998e-10
-8.17903e-06
0.000599616
0.0323364
-6.55836e-06
0.00064576
0.0348926
-3.63065e-06
0.000680787
0.0367417
-2.19051e-09
0.000699218
0.0377124
3.62625e-06
0.000699219
0.0377124
6.55375e-06
0.000680788
0.0367417
8.17421e-06
0.000645761
0.0348926
5.46067e-06
0.000599616
0.0323364
0.000545152
0.0292994
-5.36439e-09
-1.59906e-06
0.00189415
0.0787261
-8.55792e-10
-3.01778e-06
0.00208614
0.0869011
-1.73843e-06
0.00224993
0.0937573
-5.55646e-07
0.00237174
0.0987037
-7.12325e-09
0.00243624
0.101296
5.41256e-07
0.00243624
0.101296
1.72394e-06
0.00237174
0.0987037
3.00255e-06
0.00224994
0.0937573
1.58256e-06
0.00208614
0.0869011
0.00189415
0.0787261
-1.51722e-08
1.53547e-05
0.00367729
0.116738
-1.4528e-09
2.25496e-05
0.00404264
0.129014
2.21112e-05
0.00435429
0.139262
1.36875e-05
0.00458291
0.146634
-1.22139e-08
0.00470371
0.150491
-1.37118e-05
0.00470371
0.150491
-2.21356e-05
0.00458292
0.146634
-2.25736e-05
0.00435429
0.139262
-1.53777e-05
0.00404265
0.129014
0.0036773
0.116738
-2.35421e-08
4.57022e-05
0.00550092
0.144051
-2.09905e-09
6.78468e-05
0.00602499
0.159476
6.45165e-05
0.0064695
0.172282
3.89374e-05
0.00679153
0.181462
-1.74627e-08
0.00696088
0.186255
-3.89721e-05
0.00696088
0.186255
-6.45507e-05
0.00679153
0.181462
-6.788e-05
0.0064695
0.172282
-4.57336e-05
0.006025
0.159476
0.00550093
0.144051
-3.10786e-08
8.8325e-05
0.00701878
0.161477
-2.80996e-09
0.000130595
0.00764914
0.179201
0.000123208
0.00817859
0.193823
7.38278e-05
0.00855725
0.204263
-2.27749e-08
0.00875516
0.2097
-7.38729e-05
0.00875517
0.2097
-0.000123252
0.00855726
0.204263
-0.000130636
0.0081786
0.193823
-8.83636e-05
0.00764915
0.1792
0.00701879
0.161477
-3.7541e-08
0.000141169
0.00798652
0.1699
-3.61874e-09
0.000207347
0.00865224
0.189185
0.000194777
0.00920372
0.204985
0.000116296
0.00959272
0.216216
-2.80301e-08
0.00979456
0.22205
-0.000116351
0.00979456
0.22205
-0.00019483
0.00959272
0.216216
-0.000207396
0.00920373
0.204985
-0.000141214
0.00865225
0.189185
0.00798653
0.1699
-4.27196e-08
0.000201197
0.00828191
0.170249
-4.61135e-09
0.000293808
0.00891158
0.190477
0.000275154
0.00942405
0.206928
0.000163894
0.00978028
0.218564
-3.30471e-08
0.00996362
0.224591
-0.000163959
0.00996363
0.224591
-0.000275216
0.00978028
0.218564
-0.000293864
0.00942406
0.206928
-0.000201246
0.00891159
0.190477
0.00828192
0.170249
-4.64994e-08
0.000265599
0.00790094
0.163468
-5.74163e-09
0.000386374
0.00843619
0.184145
0.000360762
0.0088634
0.200832
0.000214378
0.00915594
0.212572
-3.74707e-08
0.00930522
0.218631
-0.000214451
0.00930523
0.218631
-0.000360831
0.00915595
0.212572
-0.000386435
0.00886341
0.200832
-0.000265651
0.0084362
0.184145
0.00790095
0.163468
-4.86196e-08
0.000334631
0.0069371
0.150493
-7.09064e-09
0.000483703
0.0073431
0.171257
0.00044922
0.00766064
0.187875
0.000266001
0.00787502
0.19949
-4.0804e-08
0.00798354
0.205461
-0.00026608
0.00798354
0.205461
-0.000449293
0.00787502
0.19949
-0.000483767
0.00766065
0.187875
-0.000334684
0.00734311
0.171257
0.00693711
0.150493
-4.92849e-08
0.000404909
0.13224
-8.19974e-09
0.0055586
0.000581525
0.152896
0.00582026
0.000537804
0.169216
0.00602672
0.000317409
0.180533
0.00616753
-4.22448e-08
0.186324
0.00623871
-0.000317491
0.186324
0.00623871
-0.000537879
0.180533
0.00616753
-0.000581589
0.169216
0.00602672
-0.000404962
0.152896
0.00582027
0.13224
-4.73175e-08
0.0055586
-7.23658e-07
0.000168802
0.0291313
-2.25834e-10
-1.48259e-06
0.000187092
0.0321501
-1.1051e-06
0.000203085
0.0346891
-6.00386e-07
0.000215668
0.0365255
-1.67047e-09
0.00022239
0.0374894
5.97014e-07
0.00022239
0.0374894
1.10168e-06
0.000215668
0.0365255
1.47896e-06
0.000203086
0.0346891
7.19902e-07
0.000187093
0.0321501
0.000168803
0.0291313
-3.76506e-09
1.63095e-06
0.000664104
0.0782292
-6.291e-10
1.60139e-06
0.000735556
0.0863527
1.69679e-06
0.00079763
0.0931627
1.10446e-06
0.000844646
0.0980753
-5.37192e-09
0.000869757
0.10065
-1.11519e-06
0.000869757
0.10065
-1.70756e-06
0.000844647
0.0980753
-1.61206e-06
0.000797631
0.0931627
-1.64132e-06
0.000735558
0.0863527
0.000664105
0.0782292
-1.06419e-08
8.82819e-06
0.00136883
0.116024
-1.09592e-09
1.22171e-05
0.00151281
0.128233
1.15206e-05
0.00163716
0.138424
6.9552e-06
0.00172965
0.145754
-9.19374e-09
0.00177886
0.149589
-6.97353e-06
0.00177887
0.149589
-1.15388e-05
0.00172965
0.145754
-1.22351e-05
0.00163717
0.138424
-8.84544e-06
0.00151282
0.128233
0.00136884
0.116024
-1.70918e-08
2.14738e-05
0.00212974
0.143268
-1.59092e-09
3.10926e-05
0.00234551
0.158633
2.91905e-05
0.00253052
0.171391
1.74808e-05
0.00266622
0.180537
-1.30886e-08
0.00273806
0.185313
-1.75068e-05
0.00273807
0.185313
-2.92161e-05
0.00266622
0.180537
-3.11173e-05
0.00253052
0.171391
-2.14971e-05
0.00234551
0.158633
0.00212975
0.143268
-2.28323e-08
3.96324e-05
0.00280091
0.160766
-2.12708e-09
5.80007e-05
0.00307032
0.178457
5.44395e-05
0.00329905
0.193058
3.25217e-05
0.00346464
0.203486
-1.69842e-08
0.00355177
0.208919
-3.25553e-05
0.00355177
0.208919
-5.44721e-05
0.00346464
0.203486
-5.80318e-05
0.00329906
0.193058
-3.96611e-05
0.00307032
0.178457
0.00280092
0.160766
-2.7768e-08
6.27876e-05
0.0032679
0.169371
-2.72183e-09
9.1956e-05
0.003562
0.188664
8.62527e-05
0.00380843
0.204481
5.14531e-05
0.00398442
0.215731
-2.07919e-08
0.00407636
0.221576
-5.14941e-05
0.00407636
0.221576
-8.62921e-05
0.00398442
0.215731
-9.19928e-05
0.00380844
0.204481
-6.28209e-05
0.003562
0.188664
0.00326791
0.16937
-3.17951e-08
8.98583e-05
0.00346199
0.169965
-3.42169e-09
0.000131339
0.00374866
0.190249
0.000123049
0.00398492
0.206759
7.33069e-05
0.00415122
0.218447
-2.43883e-08
0.0042374
0.224503
-7.33548e-05
0.0042374
0.224503
-0.000123095
0.00415122
0.218447
-0.000131381
0.00398493
0.206759
-8.98952e-05
0.00374867
0.190249
0.003462
0.169965
-3.48448e-08
0.00011968
0.00336451
0.163446
-4.19596e-09
0.00017451
0.00361536
0.184223
0.000163136
0.00381819
0.20101
9.70054e-05
0.00395874
0.21283
-2.75493e-08
0.00403092
0.218934
-9.70594e-05
0.00403092
0.218934
-0.000163186
0.00395875
0.21283
-0.000174556
0.00381819
0.20101
-0.00011972
0.00361536
0.184223
0.00336452
0.163446
-3.67622e-08
0.000152045
0.00300277
0.150703
-5.08384e-09
0.000220265
0.00319896
0.171605
0.000204874
0.00335388
0.188355
0.000121436
0.00345945
0.200073
-2.99752e-08
0.00351316
0.2061
-0.000121494
0.00351316
0.2061
-0.000204928
0.00345945
0.200073
-0.000220314
0.00335388
0.188355
-0.000152086
0.00319896
0.171605
0.00300277
0.150703
-3.76614e-08
0.000183316
0.132615
-5.78483e-09
0.00244402
0.000264552
0.15344
0.00257397
0.000245522
0.169912
0.00267675
0.000145226
0.181346
0.0027472
-3.12106e-08
0.1872
0.00278295
-0.000145287
0.1872
0.00278296
-0.000245578
0.181345
0.0027472
-0.000264601
0.169912
0.00267675
-0.000183357
0.15344
0.00257398
0.132615
-3.68746e-08
0.00244402
-1.3011e-06
6.75591e-05
0.029065
-1.56074e-10
-1.88055e-06
7.41276e-05
0.0320765
-1.5281e-06
7.97619e-05
0.034609
-8.4897e-07
8.4149e-05
0.0364407
-1.24362e-09
8.64654e-05
0.0374021
8.46478e-07
8.64654e-05
0.0374021
1.5256e-06
8.41492e-05
0.0364407
1.87797e-06
7.97623e-05
0.034609
1.2984e-06
7.41281e-05
0.0320765
6.75592e-05
0.029065
-2.57126e-09
-1.67355e-06
0.000254105
0.0780443
-4.53831e-10
-2.52717e-06
0.000280591
0.0861471
-2.08246e-06
0.000303542
0.0929385
-1.13231e-06
0.000320953
0.0978376
-3.95633e-09
0.000330237
0.100405
1.12442e-06
0.000330237
0.100405
2.07464e-06
0.000320954
0.0978376
2.51932e-06
0.000303543
0.0929384
1.66561e-06
0.000280593
0.0861471
0.000254106
0.0780443
-7.3705e-09
3.97629e-07
0.00052344
0.115755
-7.83883e-10
3.8336e-07
0.000578979
0.127935
5.69358e-07
0.000626917
0.1381
4.55672e-07
0.000662736
0.145412
-6.74762e-09
0.000681842
0.149238
-4.69082e-07
0.000681842
0.149238
-5.82543e-07
0.000662737
0.145412
-3.95376e-07
0.000626919
0.1381
-4.07683e-07
0.000578981
0.127935
0.000523444
0.115755
-1.17744e-08
4.72685e-06
0.000824473
0.142963
-1.12924e-09
6.9408e-06
0.000910541
0.1583
6.73157e-06
0.000984534
0.171033
4.12789e-06
0.00103914
0.180164
-9.5717e-09
0.00106815
0.184931
-4.14688e-06
0.00106815
0.184931
-6.75013e-06
0.00103914
0.180164
-6.95872e-06
0.000984536
0.171033
-4.74382e-06
0.000910544
0.1583
0.000824477
0.142963
-1.60798e-08
1.16643e-05
0.0011014
0.160478
-1.50068e-09
1.72412e-05
0.00121226
0.17815
1.64001e-05
0.00130678
0.192736
9.8909e-06
0.00137568
0.203156
-1.23729e-08
0.00141208
0.208585
-9.91539e-06
0.00141208
0.208585
-1.64239e-05
0.00137569
0.203156
-1.72637e-05
0.00130678
0.192736
-1.16851e-05
0.00121227
0.17815
0.0011014
0.160478
-1.97979e-08
2.09527e-05
0.00130588
0.169145
-1.90412e-09
3.09329e-05
0.00143045
0.188436
2.92555e-05
0.00153536
0.204254
1.75505e-05
0.00161085
0.215507
-1.50893e-08
0.00165046
0.221356
-1.75802e-05
0.00165046
0.221356
-2.92841e-05
0.00161085
0.215507
-3.09596e-05
0.00153537
0.204254
-2.09769e-05
0.00143045
0.188436
0.00130588
0.169145
-2.28855e-08
3.22058e-05
0.00140486
0.169834
-2.35964e-09
4.74198e-05
0.00152963
0.190134
4.47102e-05
0.00163306
0.206664
2.67448e-05
0.00170643
0.218369
-1.76436e-08
0.00174462
0.224435
-2.67796e-05
0.00174462
0.224435
-4.47433e-05
0.00170644
0.218369
-4.74502e-05
0.00163307
0.206664
-3.22328e-05
0.00152964
0.190134
0.00140487
0.169834
-2.53297e-08
4.50055e-05
0.00138464
0.163421
-2.8468e-09
6.60727e-05
0.00149671
0.184235
6.20884e-05
0.00158793
0.20106
3.70367e-05
0.00165163
0.21291
-1.99065e-08
0.00168447
0.219032
-3.70758e-05
0.00168447
0.219032
-6.21253e-05
0.00165163
0.21291
-6.61062e-05
0.00158794
0.201059
-4.50345e-05
0.00149672
0.184235
0.00138464
0.163421
-2.70512e-08
5.93505e-05
0.00125098
0.150777
-3.38019e-09
8.64355e-05
0.00134105
0.171734
8.07155e-05
0.00141262
0.188536
4.79587e-05
0.00146171
0.200295
-2.17116e-08
0.00148677
0.206346
-4.80012e-05
0.00148677
0.206346
-8.07552e-05
0.00146171
0.200295
-8.6471e-05
0.00141262
0.188536
-5.93809e-05
0.00134105
0.171734
0.00125098
0.150777
-2.81044e-08
7.357e-05
0.132764
-3.81254e-09
0.00102834
0.000106726
0.153658
0.00108975
9.94385e-05
0.170193
0.00113854
5.89543e-05
0.181676
0.00117211
-2.28233e-08
0.187556
0.0011892
-5.89989e-05
0.187556
0.0011892
-9.94799e-05
0.181676
0.00117211
-0.000106762
0.170193
0.00113854
-7.36008e-05
0.153658
0.00108976
0.132764
-2.81615e-08
0.00102834
-3.4096e-07
1.62258e-05
0.0290492
-9.932e-11
-5.3573e-07
1.80004e-05
0.0320587
-4.36526e-07
1.96401e-05
0.0345893
-2.44688e-07
2.09978e-05
0.0364195
-9.05531e-10
2.17316e-05
0.0373801
2.42879e-07
2.17316e-05
0.0373801
4.34733e-07
2.09979e-05
0.0364195
5.33918e-07
1.96403e-05
0.0345893
3.39152e-07
1.80006e-05
0.0320587
1.6226e-05
0.0290491
-1.7051e-09
-4.73575e-07
7.48368e-05
0.0779862
-2.95474e-10
-8.19929e-07
8.3385e-05
0.086082
-7.03182e-07
9.10371e-05
0.0928669
-3.93314e-07
9.70069e-05
0.0977613
-2.8516e-09
0.000100231
0.100326
3.87639e-07
0.000100231
0.100326
6.97614e-07
9.70072e-05
0.0977612
8.14414e-07
9.10378e-05
0.0928669
4.68193e-07
8.3386e-05
0.086082
7.48373e-05
0.0779862
-4.9611e-09
2.15606e-07
0.000167939
0.115661
-5.07026e-10
1.15858e-07
0.000187213
0.127831
1.33034e-07
0.000204194
0.137987
1.03186e-07
0.000217122
0.145292
-4.84557e-09
0.000224083
0.149114
-1.1279e-07
0.000224083
0.149114
-1.42446e-07
0.000217123
0.145292
-1.24494e-07
0.000204195
0.137987
-2.23306e-07
0.000187214
0.127831
0.000167941
0.115661
-7.98058e-09
1.78708e-06
0.000278232
0.142851
-7.4526e-10
2.4702e-06
0.000309528
0.158177
2.33343e-06
0.000336846
0.170901
1.41153e-06
0.000357314
0.180024
-6.85291e-09
0.000368273
0.184789
-1.42511e-06
0.000368274
0.184789
-2.34662e-06
0.000357315
0.180024
-2.48284e-06
0.000336848
0.170901
-1.79877e-06
0.00030953
0.158177
0.000278234
0.142851
-1.10195e-08
4.39977e-06
0.00038508
0.160366
-9.91604e-10
6.36269e-06
0.000426832
0.178031
5.99013e-06
0.00046289
0.192611
3.59239e-06
0.000489528
0.203026
-8.83012e-09
0.0005037
0.208453
-3.60985e-06
0.0005037
0.208453
-6.007e-06
0.00048953
0.203026
-6.37862e-06
0.000462892
0.192611
-4.41433e-06
0.000426835
0.178031
0.000385083
0.160366
-1.36935e-08
8.01194e-06
0.000469113
0.169053
-1.2495e-09
1.1727e-05
0.000517387
0.188342
1.10423e-05
0.000558529
0.204159
6.60773e-06
0.000588495
0.215413
-1.074e-08
0.000604321
0.221262
-6.62892e-06
0.000604322
0.221262
-1.10626e-05
0.000588497
0.215413
-1.17459e-05
0.000558532
0.204159
-8.02903e-06
0.00051739
0.188342
0.000469117
0.169053
-1.59751e-08
1.25041e-05
0.00051579
0.169775
-1.52791e-09
1.83643e-05
0.000565338
0.19008
1.72874e-05
0.000606883
0.206617
1.03307e-05
0.000636688
0.218328
-1.25362e-08
0.000652294
0.224398
-1.03554e-05
0.000652295
0.224398
-1.73109e-05
0.00063669
0.218328
-1.8386e-05
0.000606886
0.206617
-1.25233e-05
0.000565341
0.19008
0.000515793
0.169774
-1.78655e-08
1.77208e-05
0.00051763
0.163402
-1.81664e-09
2.60152e-05
0.000563153
0.184229
2.44394e-05
0.000600585
0.201067
1.4575e-05
0.000626978
0.21293
-1.41474e-08
0.000640657
0.219058
-1.46028e-05
0.000640658
0.219058
-2.44657e-05
0.00062698
0.21293
-2.60392e-05
0.000600587
0.201067
-1.77417e-05
0.000563156
0.184229
0.000517633
0.163401
-1.93217e-08
2.36001e-05
0.000474958
0.150796
-2.12359e-09
3.43937e-05