/*--------------------------------*- C++ -*----------------------------------*\
| =========                 |                                                 |
| \\      /  F ield         | OpenFOAM: The Open Source CFD Toolbox           |
|  \\    /   O peration     | Version:  2106                                  |
|   \\  /    A nd           | Website:  www.openfoam.com                      |
|    \\/     M anipulation  |                                                 |
\*---------------------------------------------------------------------------*/
FoamFile
{
    version     2.0;
    format      ascii;
    arch        "LSB;label=32;scalar=64";
    class       volVectorField;
    location    "0.45";
    object      U;
}
// * * * * * * * * * * * * * * * * * * * * * * * * * * * * * * * * * * * * * //

dimensions      [0 1 -1 0 0 0 0];

internalField   nonuniform List<vector> 
10000
(
(0.0625655 0.0737236 0.345111)
(0.0533607 0.0838441 0.359591)
(0.0398506 0.0929957 0.370956)
(0.0247218 0.0993783 0.378804)
(0.0083781 0.102678 0.382793)
(-0.00837811 0.102678 0.382793)
(-0.0247218 0.0993783 0.378804)
(-0.0398507 0.0929957 0.370956)
(-0.0533608 0.0838441 0.359591)
(-0.0625655 0.0737235 0.345111)
(0.172057 0.204127 0.727867)
(0.145237 0.231368 0.747518)
(0.108428 0.255327 0.762158)
(0.0670842 0.271911 0.772056)
(0.0227078 0.280465 0.777005)
(-0.0227078 0.280465 0.777005)
(-0.0670843 0.271911 0.772056)
(-0.108428 0.255326 0.762158)
(-0.145237 0.231368 0.747518)
(-0.172057 0.204127 0.727867)
(0.222607 0.264327 0.923794)
(0.185803 0.296027 0.939623)
(0.137825 0.323708 0.950688)
(0.0848503 0.342644 0.957992)
(0.0286508 0.352347 0.961574)
(-0.0286509 0.352347 0.961574)
(-0.0848504 0.342644 0.957992)
(-0.137825 0.323708 0.950688)
(-0.185803 0.296027 0.939623)
(-0.222607 0.264327 0.923794)
(0.237589 0.281663 1.02292)
(0.19636 0.311522 1.03343)
(0.144755 0.337648 1.0401)
(0.088703 0.355319 1.04436)
(0.0298837 0.364314 1.04639)
(-0.0298838 0.364314 1.04639)
(-0.0887031 0.355318 1.04436)
(-0.144755 0.337648 1.0401)
(-0.196361 0.311522 1.03343)
(-0.237589 0.281663 1.02292)
(0.2356 0.278811 1.07128)
(0.193114 0.304778 1.07724)
(0.14161 0.327634 1.08036)
(0.0864261 0.342959 1.08224)
(0.0290603 0.350713 1.08309)
(-0.0290604 0.350713 1.08309)
(-0.0864262 0.342959 1.08224)
(-0.14161 0.327634 1.08036)
(-0.193114 0.304778 1.07724)
(-0.2356 0.278811 1.07128)
(0.224536 0.265236 1.09236)
(0.182647 0.286597 1.09494)
(0.133297 0.305552 1.09559)
(0.0810507 0.318186 1.09584)
(0.0272046 0.324541 1.09589)
(-0.0272048 0.324541 1.09589)
(-0.0810508 0.318186 1.09584)
(-0.133297 0.305552 1.09559)
(-0.182647 0.286597 1.09494)
(-0.224537 0.265236 1.09236)
(0.208143 0.245246 1.09897)
(0.168024 0.261766 1.09924)
(0.122071 0.276571 1.09832)
(0.0739634 0.286419 1.09756)
(0.0247838 0.291351 1.09712)
(-0.0247841 0.291351 1.09712)
(-0.0739636 0.286419 1.09756)
(-0.122072 0.276571 1.09832)
(-0.168025 0.261766 1.09924)
(-0.208143 0.245245 1.09897)
(0.188757 0.221573 1.09826)
(0.151195 0.2333 1.09708)
(0.109378 0.243948 1.09527)
(0.0660552 0.251064 1.09396)
(0.0220987 0.254628 1.09327)
(-0.0220989 0.254628 1.09327)
(-0.0660554 0.251064 1.09396)
(-0.109379 0.243947 1.09527)
(-0.151196 0.2333 1.09708)
(-0.188757 0.221573 1.09826)
(0.167916 0.196012 1.09426)
(0.133537 0.203138 1.09219)
(0.0962098 0.209761 1.08996)
(0.0579199 0.214317 1.08841)
(0.0193473 0.216618 1.08762)
(-0.0193476 0.216618 1.08762)
(-0.0579201 0.214317 1.08841)
(-0.0962101 0.209761 1.08996)
(-0.133537 0.203138 1.09219)
(-0.167917 0.196011 1.09426)
(0.146786 0.170213 1.08919)
(0.116253 0.171262 1.08665)
(0.0831767 0.174497 1.08428)
(0.0498887 0.176856 1.08268)
(0.016635 0.178068 1.08188)
(-0.0166353 0.178068 1.08188)
(-0.049889 0.176856 1.08268)
(-0.083177 0.174497 1.08428)
(-0.116254 0.171262 1.08665)
(-0.146787 0.170213 1.08919)
(0.0111931 0.0142982 0.266598)
(0.00940354 0.0175883 0.278864)
(0.00710042 0.0202312 0.288908)
(0.00449466 0.022043 0.2959)
(0.00153783 0.022987 0.299479)
(-0.00153786 0.0229869 0.299479)
(-0.00449469 0.022043 0.2959)
(-0.00710045 0.0202312 0.288908)
(-0.00940356 0.0175883 0.278864)
(-0.0111931 0.0142982 0.266598)
(0.0543793 0.0657987 0.629736)
(0.0466934 0.0791631 0.651691)
(0.0357348 0.0906143 0.669298)
(0.0225912 0.0987278 0.681407)
(0.00773078 0.102986 0.687553)
(-0.00773087 0.102986 0.687553)
(-0.0225912 0.0987277 0.681407)
(-0.0357349 0.0906142 0.669298)
(-0.0466935 0.0791631 0.651691)
(-0.0543794 0.0657986 0.629736)
(0.0976802 0.116677 0.876823)
(0.0833338 0.137987 0.900659)
(0.063439 0.156274 0.919354)
(0.0398647 0.169179 0.932056)
(0.0136013 0.175918 0.938452)
(-0.0136015 0.175918 0.938452)
(-0.0398649 0.169179 0.932056)
(-0.0634391 0.156274 0.919354)
(-0.0833339 0.137987 0.900659)
(-0.0976803 0.116677 0.876823)
(0.133668 0.158489 1.04467)
(0.113065 0.18457 1.06668)
(0.0855168 0.206843 1.08352)
(0.0534329 0.222448 1.09482)
(0.0181787 0.230551 1.10047)
(-0.0181789 0.230551 1.10047)
(-0.0534331 0.222448 1.09482)
(-0.085517 0.206843 1.08352)
(-0.113065 0.18457 1.06668)
(-0.133668 0.158489 1.04467)
(0.15939 0.187915 1.15775)
(0.133665 0.215706 1.17636)
(0.100461 0.239279 1.19023)
(0.0624462 0.255675 1.19941)
(0.0211904 0.264142 1.20395)
(-0.0211906 0.264142 1.20395)
(-0.0624465 0.255675 1.19941)
(-0.100462 0.239279 1.19023)
(-0.133665 0.215706 1.17636)
(-0.159391 0.187915 1.15775)
(0.174902 0.205139 1.23276)
(0.145427 0.232156 1.24756)
(0.10864 0.254872 1.25825)
(0.0672062 0.270564 1.26523)
(0.0227511 0.278625 1.26865)
(-0.0227514 0.278625 1.26865)
(-0.0672066 0.270564 1.26523)
(-0.108641 0.254872 1.25825)
(-0.145428 0.232156 1.24756)
(-0.174902 0.205139 1.23276)
(0.181274 0.211518 1.28153)
(0.149433 0.235868 1.29271)
(0.110975 0.256099 1.30051)
(0.0683393 0.269989 1.30552)
(0.0230825 0.277091 1.30794)
(-0.0230829 0.277091 1.30794)
(-0.0683397 0.269989 1.30552)
(-0.110975 0.256099 1.30051)
(-0.149433 0.235868 1.29271)
(-0.181274 0.211518 1.28153)
(0.179858 0.208698 1.3124)
(0.146977 0.229009 1.32046)
(0.10853 0.245611 1.32586)
(0.0665474 0.256954 1.32924)
(0.0224293 0.262735 1.33086)
(-0.0224297 0.262735 1.33086)
(-0.0665479 0.256954 1.32924)
(-0.10853 0.245611 1.32586)
(-0.146978 0.229009 1.32046)
(-0.179859 0.208698 1.3124)
(0.172124 0.198363 1.33122)
(0.139488 0.213717 1.33676)
(0.102415 0.225909 1.3403)
(0.062529 0.234257 1.34245)
(0.0210301 0.238508 1.34345)
(-0.0210306 0.238508 1.34345)
(-0.0625295 0.234257 1.34245)
(-0.102415 0.225909 1.3403)
(-0.139488 0.213717 1.33676)
(-0.172124 0.198363 1.33122)
(0.159644 0.183319 1.34213)
(0.128517 0.191148 1.3458)
(0.0935874 0.198599 1.34795)
(0.056852 0.203737 1.34918)
(0.0190739 0.20635 1.34973)
(-0.0190745 0.20635 1.34973)
(-0.0568525 0.203737 1.34918)
(-0.0935879 0.198599 1.34795)
(-0.128518 0.191148 1.3458)
(-0.159644 0.183319 1.34213)
(0.00111844 0.00124889 0.157825)
(0.00112993 0.00159503 0.166134)
(0.000880812 0.00200235 0.173072)
(0.000589541 0.00230405 0.177983)
(0.00020542 0.00247122 0.180525)
(-0.00020545 0.00247122 0.180525)
(-0.00058957 0.00230405 0.177983)
(-0.00088084 0.00200234 0.173072)
(-0.00112995 0.00159502 0.166134)
(-0.00111847 0.00124887 0.157825)
(0.0179664 0.0208481 0.442165)
(0.0161572 0.0254339 0.462391)
(0.0126449 0.0297499 0.479001)
(0.00812092 0.0329375 0.490657)
(0.00279823 0.0346497 0.496657)
(-0.00279832 0.0346497 0.496657)
(-0.00812101 0.0329374 0.490657)
(-0.012645 0.0297498 0.479001)
(-0.0161572 0.0254339 0.462391)
(-0.0179664 0.020848 0.442165)
(0.0409313 0.0476448 0.686008)
(0.0361487 0.0572373 0.713613)
(0.0280818 0.0659872 0.735919)
(0.0178873 0.0723846 0.751444)
(0.00614132 0.0757912 0.759393)
(-0.00614148 0.0757912 0.759393)
(-0.0178875 0.0723846 0.751444)
(-0.0280819 0.0659872 0.735919)
(-0.0361488 0.0572372 0.713613)
(-0.0409314 0.0476447 0.686008)
(0.0656814 0.0765163 0.88879)
(0.0572443 0.0906288 0.919987)
(0.0441399 0.103255 0.944773)
(0.0279354 0.112388 0.961878)
(0.00956201 0.117217 0.970593)
(-0.00956223 0.117217 0.970593)
(-0.0279357 0.112388 0.961878)
(-0.0441401 0.103255 0.944773)
(-0.0572445 0.0906287 0.919986)
(-0.0656816 0.0765163 0.88879)
(0.0877576 0.102119 1.05391)
(0.0756134 0.119281 1.0859)
(0.0578885 0.134409 1.11088)
(0.0364299 0.145245 1.12797)
(0.0124355 0.150937 1.13663)
(-0.0124358 0.150937 1.13663)
(-0.0364302 0.145245 1.12797)
(-0.0578887 0.134409 1.11088)
(-0.0756136 0.119281 1.0859)
(-0.0877578 0.102119 1.05391)
(0.104931 0.12179 1.18626)
(0.0894586 0.140254 1.21714)
(0.0680172 0.156305 1.24083)
(0.0425802 0.167701 1.25691)
(0.0144979 0.17365 1.26501)
(-0.0144983 0.17365 1.26501)
(-0.0425805 0.167701 1.25691)
(-0.0680176 0.156305 1.24083)
(-0.0894589 0.140254 1.21714)
(-0.104932 0.121789 1.18626)
(0.116367 0.134578 1.29097)
(0.0981966 0.152665 1.31956)
(0.0741577 0.168154 1.34115)
(0.046192 0.179061 1.35567)
(0.0156891 0.184724 1.36295)
(-0.0156895 0.184724 1.36295)
(-0.0461925 0.179061 1.35567)
(-0.0741581 0.168154 1.34115)
(-0.098197 0.152665 1.31956)
(-0.116367 0.134577 1.29097)
(0.121954 0.140388 1.37282)
(0.101873 0.156635 1.39853)
(0.0764218 0.1703 1.41764)
(0.0473702 0.179852 1.4304)
(0.0160504 0.184787 1.43677)
(-0.0160509 0.184787 1.43677)
(-0.0473707 0.179852 1.4304)
(-0.0764222 0.1703 1.41764)
(-0.101873 0.156635 1.39853)
(-0.121954 0.140388 1.37282)
(0.122103 0.139674 1.43593)
(0.10099 0.152915 1.45865)
(0.0752331 0.163727 1.47528)
(0.0463933 0.171253 1.48626)
(0.0156791 0.175125 1.49171)
(-0.0156797 0.175125 1.49171)
(-0.0463939 0.171253 1.48626)
(-0.0752336 0.163727 1.47528)
(-0.10099 0.152915 1.45865)
(-0.122103 0.139674 1.43593)
(0.11764 0.134244 1.48371)
(0.0963515 0.142176 1.50393)
(0.0710715 0.149355 1.51817)
(0.0435555 0.154327 1.52744)
(0.0146753 0.15687 1.532)
(-0.0146759 0.15687 1.532)
(-0.0435561 0.154327 1.52744)
(-0.071072 0.149355 1.51817)
(-0.096352 0.142176 1.50393)
(-0.117641 0.134244 1.48371)
(0.00070993 0.000932842 0.138212)
(0.000554544 0.00116973 0.145035)
(0.000379526 0.00133758 0.15059)
(0.000235206 0.00143682 0.154489)
(7.87318e-05 0.00148645 0.156501)
(-7.87585e-05 0.00148645 0.156501)
(-0.000235232 0.00143682 0.154489)
(-0.000379552 0.00133757 0.15059)
(-0.000554569 0.00116971 0.145035)
(-0.000709951 0.000932825 0.138212)
(0.00699029 0.00836026 0.396283)
(0.00606876 0.0103048 0.414386)
(0.00466593 0.0119871 0.42904)
(0.00297641 0.0131944 0.439296)
(0.00102212 0.0138366 0.444573)
(-0.0010222 0.0138366 0.444573)
(-0.0029765 0.0131944 0.439296)
(-0.00466601 0.0119871 0.42904)
(-0.00606883 0.0103048 0.414386)
(-0.00699036 0.00836021 0.396283)
(0.0171303 0.0202299 0.62984)
(0.0149408 0.0246298 0.656552)
(0.0115612 0.0284906 0.678005)
(0.00736455 0.0312927 0.692956)
(0.00252895 0.0327831 0.700629)
(-0.0025291 0.0327831 0.700629)
(-0.0073647 0.0312927 0.692956)
(-0.0115613 0.0284905 0.678005)
(-0.0149409 0.0246298 0.656552)
(-0.0171304 0.0202298 0.629839)
(0.0293694 0.0344867 0.83692)
(0.0255316 0.0414828 0.869533)
(0.0197304 0.0476208 0.895477)
(0.0125283 0.0520712 0.913467)
(0.00429611 0.054431 0.92267)
(-0.00429632 0.054431 0.92267)
(-0.0125285 0.0520712 0.913467)
(-0.0197306 0.0476208 0.895477)
(-0.0255318 0.0414827 0.869533)
(-0.0293696 0.0344866 0.83692)
(0.0416694 0.0487113 1.01744)
(0.0359996 0.0578503 1.05351)
(0.0277073 0.0658224 1.08189)
(0.0175235 0.0715735 1.10146)
(0.00599753 0.0746099 1.11144)
(-0.00599781 0.0746099 1.11144)
(-0.0175238 0.0715735 1.10146)
(-0.0277076 0.0658223 1.08189)
(-0.0359999 0.0578502 1.05351)
(-0.0416696 0.0487112 1.01744)
(0.052553 0.0611625 1.17255)
(0.045056 0.0716488 1.21001)
(0.0344936 0.0807103 1.23916)
(0.0217196 0.0872037 1.25915)
(0.00741763 0.0906153 1.2693)
(-0.00741797 0.0906153 1.2693)
(-0.02172 0.0872037 1.25915)
(-0.0344939 0.0807102 1.23916)
(-0.0450563 0.0716487 1.21001)
(-0.0525533 0.0611624 1.17255)
(0.0610489 0.0707167 1.30404)
(0.0518914 0.0816044 1.34127)
(0.0394877 0.0908926 1.3699)
(0.0247485 0.0974987 1.38943)
(0.00843255 0.100952 1.39932)
(-0.00843296 0.100952 1.39932)
(-0.0247489 0.0974987 1.38943)
(-0.0394881 0.0908926 1.3699)
(-0.0518917 0.0816043 1.34127)
(-0.0610491 0.0707166 1.30403)
(0.0665791 0.0767081 1.41397)
(0.0560709 0.087035 1.44977)
(0.0423933 0.0956997 1.47702)
(0.0264406 0.101812 1.49548)
(0.00898716 0.104991 1.50479)
(-0.00898763 0.104991 1.50479)
(-0.026441 0.101812 1.49548)
(-0.0423937 0.0956996 1.47702)
(-0.0560713 0.0870349 1.44977)
(-0.0665795 0.076708 1.41396)
(0.0689594 0.078887 1.50435)
(0.0575212 0.0877876 1.53807)
(0.0431806 0.0950459 1.5634)
(0.0267864 0.10013 1.58042)
(0.00907992 0.102759 1.58895)
(-0.00908043 0.102759 1.58895)
(-0.0267868 0.10013 1.58042)
(-0.0431811 0.0950459 1.5634)
(-0.0575216 0.0877875 1.53807)
(-0.0689598 0.0788869 1.50435)
(0.0683783 0.0780375 1.57694)
(0.0564408 0.0839359 1.60883)
(0.0419395 0.0890641 1.6319)
(0.0258439 0.0926226 1.64719)
(0.0087315 0.0944488 1.65479)
(-0.00873204 0.0944488 1.65479)
(-0.0258445 0.0926226 1.64719)
(-0.04194 0.0890641 1.6319)
(-0.0564413 0.0839358 1.60883)
(-0.0683786 0.0780375 1.57694)
(0.000127726 0.000139434 0.127399)
(0.000118467 0.000182993 0.133762)
(8.74679e-05 0.000227781 0.138934)
(5.98136e-05 0.000259163 0.14257)
(2.06482e-05 0.000276944 0.144447)
(-2.06701e-05 0.000276942 0.144447)
(-5.98352e-05 0.000259158 0.14257)
(-8.74887e-05 0.000227772 0.138934)
(-0.000118487 0.000182981 0.133762)
(-0.000127744 0.00013942 0.127399)
(0.00246945 0.00285628 0.369392)
(0.00220882 0.00354132 0.386692)
(0.00172989 0.00417259 0.400704)
(0.0011179 0.0046422 0.410535)
(0.00038597 0.00489706 0.415601)
(-0.000386041 0.00489706 0.415601)
(-0.00111797 0.00464218 0.410535)
(-0.00172996 0.00417257 0.400704)
(-0.00220888 0.00354129 0.386692)
(-0.0024695 0.00285624 0.369392)
(0.00672603 0.00780323 0.593619)
(0.00597517 0.00956584 0.619857)
(0.00468284 0.0111668 0.640994)
(0.003009 0.0123577 0.655781)
(0.00103735 0.0129995 0.663388)
(-0.00103747 0.0129995 0.663388)
(-0.00300912 0.0123577 0.655781)
(-0.00468296 0.0111668 0.640994)
(-0.00597528 0.00956579 0.619857)
(-0.00672612 0.00780317 0.593619)
(0.0123389 0.0143181 0.798516)
(0.010889 0.0173595 0.831597)
(0.00850882 0.0200959 0.85806)
(0.00544406 0.0221209 0.876508)
(0.00187357 0.0232067 0.885976)
(-0.00187374 0.0232067 0.885976)
(-0.00544423 0.0221209 0.876508)
(-0.00850899 0.0200959 0.858059)
(-0.0108891 0.0173594 0.831597)
(-0.0123391 0.014318 0.798516)
(0.0184435 0.0213678 0.983299)
(0.0161576 0.0256001 1.02117)
(0.0125689 0.0293725 1.05122)
(0.00800765 0.0321453 1.07208)
(0.00275044 0.0336247 1.08276)
(-0.00275067 0.0336247 1.08276)
(-0.00800788 0.0321453 1.07208)
(-0.0125691 0.0293724 1.05122)
(-0.0161578 0.0256001 1.02117)
(-0.0184437 0.0213677 0.983298)
(0.0242818 0.0280528 1.14782)
(0.0211023 0.0331709 1.18858)
(0.0163258 0.0376835 1.22062)
(0.0103549 0.0409755 1.24277)
(0.00354904 0.0427228 1.25408)
(-0.00354932 0.0427228 1.25408)
(-0.0103552 0.0409754 1.24277)
(-0.0163261 0.0376834 1.22062)
(-0.0211025 0.0331708 1.18858)
(-0.024282 0.0280527 1.14782)
(0.0292501 0.0336659 1.29238)
(0.0251985 0.0392255 1.33433)
(0.0193753 0.0440632 1.367)
(0.0122311 0.0475636 1.38948)
(0.00418233 0.0494114 1.40093)
(-0.00418267 0.0494114 1.40093)
(-0.0122315 0.0475635 1.38948)
(-0.0193756 0.0440631 1.367)
(-0.0251988 0.0392254 1.33433)
(-0.0292504 0.0336658 1.29238)
(0.0329066 0.0376895 1.41757)
(0.0280834 0.0431802 1.4593)
(0.0214491 0.0478807 1.4915)
(0.0134719 0.0512505 1.51354)
(0.00459492 0.0530191 1.52472)
(-0.0045953 0.0530191 1.52472)
(-0.0134723 0.0512505 1.51354)
(-0.0214495 0.0478806 1.4915)
(-0.0280837 0.0431801 1.4593)
(-0.0329068 0.0376894 1.41757)
(0.0350159 0.0398291 1.524)
(0.0295848 0.044751 1.56457)
(0.0224224 0.0488452 1.59552)
(0.014001 0.0517516 1.61653)
(0.00476122 0.0532662 1.62712)
(-0.00476164 0.0532662 1.62712)
(-0.0140014 0.0517516 1.61653)
(-0.0224228 0.0488452 1.59552)
(-0.0295852 0.0447509 1.56457)
(-0.0350162 0.039829 1.524)
(0.0355562 0.0403881 1.61215)
(0.0296761 0.0438576 1.65171)
(0.0222418 0.0468603 1.68076)
(0.013786 0.0489616 1.70019)
(0.00467086 0.0500459 1.70992)
(-0.00467131 0.0500459 1.70992)
(-0.0137865 0.0489616 1.70019)
(-0.0222422 0.0468603 1.68076)
(-0.0296764 0.0438576 1.65171)
(-0.0355565 0.0403881 1.61215)
(7.77474e-05 0.000105187 0.12452)
(5.41782e-05 0.000133482 0.13069)
(3.29997e-05 0.000149778 0.135673)
(2.00774e-05 0.000157742 0.13917)
(6.50174e-06 0.000161521 0.140973)
(-6.51877e-06 0.00016152 0.140973)
(-2.00942e-05 0.000157738 0.13917)
(-3.30161e-05 0.000149772 0.135673)
(-5.41939e-05 0.000133473 0.13069)
(-7.77613e-05 0.000105175 0.12452)
(0.00100913 0.00120605 0.36114)
(0.00086593 0.00149611 0.378005)
(0.000661636 0.00173989 0.391607)
(0.000422265 0.00191466 0.401141)
(0.000144896 0.00200804 0.406051)
(-0.000144951 0.00200803 0.406051)
(-0.000422319 0.00191465 0.401141)
(-0.000661688 0.00173987 0.391607)
(-0.00086598 0.00149608 0.378005)
(-0.00100917 0.00120602 0.36114)
(0.00278062 0.0032746 0.581566)
(0.00242692 0.00402796 0.607385)
(0.00188334 0.0046848 0.628131)
(0.00120456 0.00516661 0.642643)
(0.000414384 0.00542492 0.650108)
(-0.000414481 0.00542491 0.650108)
(-0.00120465 0.0051666 0.642643)
(-0.00188343 0.00468477 0.628131)
(-0.002427 0.00402792 0.607384)
(-0.00278069 0.00327455 0.581566)
(0.00521029 0.00609736 0.784999)
(0.00456081 0.00743286 0.817973)
(0.00355059 0.00860927 0.84433)
(0.002269 0.00947574 0.862719)
(0.000780539 0.00993982 0.872164)
(-0.000780677 0.00993982 0.872164)
(-0.00226914 0.00947572 0.862719)
(-0.00355072 0.00860924 0.84433)
(-0.00456093 0.00743282 0.817973)
(-0.0052104 0.0060973 0.784999)
(0.00798067 0.00929591 0.970888)
(0.0069703 0.0112143 1.00922)
(0.00541971 0.0129046 1.03966)
(0.00345536 0.014147 1.06083)
(0.00118742 0.0148106 1.07168)
(-0.0011876 0.0148106 1.07168)
(-0.00345553 0.014147 1.06083)
(-0.00541988 0.0129046 1.03966)
(-0.00697045 0.0112142 1.00922)
(-0.00798081 0.00929584 0.970887)
(0.0107691 0.0124882 1.13893)
(0.00935903 0.0148837 1.18087)
(0.00725156 0.016983 1.21393)
(0.00460794 0.0185184 1.23685)
(0.00158097 0.0193352 1.24857)
(-0.00158119 0.0193352 1.24857)
(-0.00460816 0.0185184 1.23685)
(-0.00725177 0.016983 1.21393)
(-0.00935922 0.0148837 1.18087)
(-0.0107692 0.0124881 1.13893)
(0.0132786 0.015326 1.28903)
(0.0114615 0.01801 1.33294)
(0.00883664 0.0203392 1.36729)
(0.00559249 0.022031 1.39101)
(0.00191491 0.0229269 1.40311)
(-0.00191517 0.0229269 1.40311)
(-0.00559274 0.022031 1.391)
(-0.00883688 0.0203392 1.36729)
(-0.0114617 0.01801 1.33294)
(-0.0132788 0.0153259 1.28903)
(0.0152598 0.0175156 1.42121)
(0.0130647 0.0202467 1.46565)
(0.0100123 0.022584 1.50014)
(0.00630688 0.024267 1.52384)
(0.00215438 0.0251531 1.53589)
(-0.00215468 0.0251531 1.53589)
(-0.00630717 0.024267 1.52383)
(-0.0100126 0.0225839 1.50013)
(-0.013065 0.0202467 1.46565)
(-0.0152601 0.0175155 1.42121)
(0.0165497 0.018853 1.53546)
(0.0140377 0.0213761 1.57939)
(0.0106789 0.0234784 1.61313)
(0.00668826 0.0249766 1.63612)
(0.00227795 0.0257595 1.64776)
(-0.00227828 0.0257595 1.64776)
(-0.00668858 0.0249766 1.63612)
(-0.0106792 0.0234784 1.61313)
(-0.0140379 0.0213761 1.57939)
(-0.0165499 0.018853 1.53546)
(0.0170888 0.0194351 1.63156)
(0.0143185 0.0212936 1.6751)
(0.0107729 0.0228877 1.70728)
(0.00669708 0.0240065 1.72891)
(0.0022724 0.0245851 1.73976)
(-0.00227275 0.0245851 1.73976)
(-0.00669742 0.0240065 1.72891)
(-0.0107732 0.0228877 1.70728)
(-0.0143188 0.0212936 1.6751)
(-0.017089 0.0194351 1.63156)
(1.1134e-05 1.36905e-05 0.12308)
(7.43426e-06 1.88699e-05 0.129185)
(4.01141e-06 2.22542e-05 0.134112)
(2.97808e-06 2.41688e-05 0.137572)
(9.9063e-07 2.5278e-05 0.139355)
(-1.00354e-06 2.5277e-05 0.139355)
(-2.99076e-06 2.41658e-05 0.137572)
(-4.02378e-06 2.22493e-05 0.134112)
(-7.44621e-06 1.88629e-05 0.129185)
(-1.11443e-05 1.36819e-05 0.12308)
(0.000342213 0.000399925 0.357068)
(0.000298536 0.000499484 0.37377)
(0.000231057 0.000586325 0.387233)
(0.000149093 0.000650448 0.396673)
(5.13991e-05 0.000685276 0.401534)
(-5.1441e-05 0.000685274 0.401534)
(-0.000149134 0.000650439 0.396672)
(-0.000231097 0.000586311 0.387233)
(-0.000298573 0.000499464 0.37377)
(-0.000342245 0.000399901 0.357068)
(0.0010253 0.0011932 0.57548)
(0.000903945 0.00147623 0.60112)
(0.000707324 0.00172798 0.62172)
(0.000455241 0.00191594 0.636137)
(0.000157058 0.00201766 0.643555)
(-0.000157131 0.00201766 0.643555)
(-0.000455312 0.00191593 0.636137)
(-0.000707392 0.00172796 0.62172)
(-0.000904009 0.0014762 0.60112)
(-0.00102536 0.00119317 0.57548)
(0.00201287 0.0023364 0.777833)
(0.00177668 0.00286478 0.810731)
(0.00139285 0.00333696 0.83704)
(0.000894646 0.0036896 0.855411)
(0.000308505 0.00387992 0.86485)
(-0.000308609 0.00387991 0.86485)
(-0.000894747 0.00368958 0.85541)
(-0.00139295 0.00333693 0.83704)
(-0.00177677 0.00286474 0.810731)
(-0.00201295 0.00233636 0.777833)
(0.00318887 0.00369036 0.963741)
(0.00280732 0.00447919 1.00222)
(0.00219748 0.00518296 1.03281)
(0.00140778 0.00570677 1.05411)
(0.000484912 0.00598852 1.06504)
(-0.000485048 0.00598851 1.06504)
(-0.00140791 0.00570676 1.05411)
(-0.00219761 0.00518294 1.03281)
(-0.00280744 0.00447915 1.00222)
(-0.00318897 0.00369031 0.96374)
(0.00442173 0.0050988 1.13292)
(0.00387367 0.00611579 1.17532)
(0.00302164 0.00701777 1.20881)
(0.00192933 0.00768539 1.23207)
(0.000663508 0.00804301 1.24397)
(-0.000663676 0.008043 1.24397)
(-0.00192949 0.00768537 1.23207)
(-0.0030218 0.00701774 1.20881)
(-0.00387381 0.00611575 1.17532)
(-0.00442185 0.00509875 1.13292)
(0.00557913 0.00640611 1.28517)
(0.00485545 0.0075776 1.32992)
(0.00376903 0.00860665 1.36501)
(0.00239688 0.00936285 1.38929)
(0.000822658 0.00976592 1.4017)
(-0.000822856 0.00976591 1.4017)
(-0.00239707 0.00936284 1.38929)
(-0.00376921 0.00860663 1.36501)
(-0.00485561 0.00757757 1.32992)
(-0.00557928 0.00640607 1.28517)
(0.00654081 0.00747035 1.42032)
(0.00564727 0.00869267 1.46597)
(0.00435734 0.00975184 1.50151)
(0.00275785 0.0105229 1.526)
(0.000944259 0.0109314 1.53847)
(-0.000944484 0.0109314 1.53847)
(-0.00275807 0.0105229 1.526)
(-0.00435754 0.00975182 1.50151)
(-0.00564746 0.00869264 1.46597)
(-0.00654097 0.00747032 1.42032)
(0.00722021 0.00818484 1.53806)
(0.00617547 0.00934189 1.58357)
(0.00472853 0.0103175 1.61864)
(0.0029749 0.0110191 1.64262)
(0.00101544 0.0113877 1.65476)
(-0.00101568 0.0113877 1.65476)
(-0.00297514 0.0110191 1.64262)
(-0.00472876 0.0103175 1.61864)
(-0.00617568 0.00934187 1.58357)
(-0.00722039 0.00818481 1.53806)
(0.00757435 0.00858067 1.63789)
(0.00639275 0.00946305 1.68336)
(0.00483833 0.0102186 1.71709)
(0.00301995 0.0107521 1.73982)
(0.00102669 0.0110291 1.75125)
(-0.00102695 0.0110291 1.75125)
(-0.0030202 0.0107521 1.73982)
(-0.00483857 0.0102186 1.71709)
(-0.00639297 0.00946305 1.68336)
(-0.00757455 0.00858066 1.63789)
(7.18741e-06 1.16114e-05 0.122717)
(2.78754e-06 1.51736e-05 0.128796)
(3.33277e-07 1.61709e-05 0.133698)
(-6.20108e-08 1.61221e-05 0.137139)
(-1.06413e-07 1.5988e-05 0.138913)
(9.69562e-08 1.59873e-05 0.138913)
(5.27546e-08 1.61199e-05 0.137139)
(-3.422e-07 1.61673e-05 0.133698)
(-2.79631e-06 1.51686e-05 0.128796)
(-7.19473e-06 1.16052e-05 0.122717)
(0.000128381 0.000156483 0.355868)
(0.000105892 0.00019579 0.372496)
(7.90634e-05 0.000226523 0.385889)
(5.00489e-05 0.000248051 0.395277)
(1.70883e-05 0.00025947 0.400112)
(-1.71188e-05 0.000259468 0.400112)
(-5.00787e-05 0.000248045 0.395277)
(-7.9092e-05 0.000226513 0.385889)
(-0.00010592 0.000195776 0.372496)
(-0.000128404 0.000156466 0.355867)
(0.000387493 0.000459218 0.573544)
(0.000333912 0.00057 0.599091)
(0.000257689 0.000664107 0.619603)
(0.000164653 0.000733089 0.633958)
(5.6606e-05 0.000770119 0.641343)
(-5.66589e-05 0.000770116 0.641343)
(-0.000164705 0.000733079 0.633958)
(-0.000257738 0.000664091 0.619603)
(-0.000333959 0.000569979 0.59909)
(-0.000387533 0.000459193 0.573544)
(0.000772653 0.000905733 0.775442)
(0.000674435 0.00111556 0.808276)
(0.00052542 0.00129864 0.834524)
(0.00033648 0.00143434 0.852855)
(0.00011587 0.00150737 0.862275)
(-0.000115946 0.00150737 0.862275)
(-0.000336554 0.00143433 0.852855)
(-0.00052549 0.00129862 0.834524)
(-0.000674501 0.00111553 0.808276)
(-0.00077271 0.000905702 0.775442)
(0.00124628 0.00145112 0.961294)
(0.00109122 0.00177074 0.999789)
(0.000851982 0.0020521 1.0304)
(0.000545355 0.00226098 1.05172)
(0.000187786 0.00237327 1.06266)
(-0.000187885 0.00237327 1.06266)
(-0.000545451 0.00226097 1.05172)
(-0.000852074 0.00205208 1.0304)
(-0.0010913 0.00177071 0.999789)
(-0.00124636 0.00145109 0.961294)
(0.0017595 0.00203746 1.13087)
(0.00153806 0.00245842 1.17342)
(0.00119923 0.00282891 1.20704)
(0.000766022 0.00310314 1.2304)
(0.000263509 0.00325015 1.24237)
(-0.000263631 0.00325014 1.24237)
(-0.000766141 0.00310313 1.2304)
(-0.00119934 0.00282889 1.20704)
(-0.00153816 0.00245839 1.17342)
(-0.0017596 0.00203742 1.13087)
(0.00225802 0.00260087 1.28396)
(0.00196479 0.00309609 1.32902)
(0.00152646 0.00352925 1.36439)
(0.000971858 0.003848 1.38888)
(0.000333768 0.00401815 1.4014)
(-0.000333911 0.00401814 1.4014)
(-0.000971998 0.00384799 1.38888)
(-0.00152659 0.00352923 1.36439)
(-0.00196491 0.00309607 1.32902)
(-0.00225813 0.00260084 1.28396)
(0.00268846 0.00307816 1.42033)
(0.00232381 0.00360554 1.46648)
(0.00179596 0.00406166 1.50245)
(0.00113851 0.00439438 1.52726)
(0.000390131 0.00457094 1.5399)
(-0.000390294 0.00457094 1.5399)
(-0.00113867 0.00439437 1.52726)
(-0.00179611 0.00406164 1.50245)
(-0.00232395 0.00360552 1.46648)
(-0.00268858 0.00307813 1.42033)
(0.00300895 0.00341741 1.53959)
(0.00257856 0.00392694 1.58577)
(0.00197852 0.00435656 1.62142)
(0.00124701 0.00466615 1.64581)
(0.000426029 0.00482902 1.65818)
(-0.000426207 0.00482902 1.65818)
(-0.00124718 0.00466614 1.64581)
(-0.00197869 0.00435655 1.62142)
(-0.00257871 0.00392692 1.58577)
(-0.00300909 0.00341739 1.53958)
(0.00319503 0.00362524 1.64106)
(0.00270245 0.00402453 1.68739)
(0.00205016 0.00436487 1.72182)
(0.00128204 0.00460563 1.74505)
(0.000436249 0.00473078 1.75673)
(-0.000436438 0.00473078 1.75673)
(-0.00128223 0.00460563 1.74504)
(-0.00205033 0.00436486 1.72182)
(-0.00270261 0.00402452 1.68739)
(-0.00319518 0.00362523 1.64106)
(-6.55475e-07 -1.11943e-07 0.122556)
(-1.60515e-06 2.89729e-07 0.128628)
(-1.74265e-06 7.71146e-08 0.133522)
(-1.14109e-06 -2.55758e-07 0.136958)
(-4.13156e-07 -4.45984e-07 0.138729)
(4.06419e-07 -4.46498e-07 0.138729)
(1.13454e-06 -2.57296e-07 0.136958)
(1.73636e-06 7.46424e-08 0.133522)
(1.59905e-06 2.86194e-07 0.128628)
(6.50476e-07 -1.16198e-07 0.122556)
(3.43907e-05 4.15006e-05 0.355349)
(2.80542e-05 5.28817e-05 0.371951)
(2.08913e-05 6.18063e-05 0.38532)
(1.33106e-05 6.81928e-05 0.394692)
(4.54899e-06 7.1628e-05 0.399518)
(-4.57069e-06 7.16266e-05 0.399518)
(-1.33316e-05 6.81884e-05 0.394691)
(-2.09114e-05 6.17994e-05 0.38532)
(-2.80734e-05 5.28719e-05 0.371951)
(-3.44065e-05 4.14887e-05 0.355348)
(0.000120118 0.00014116 0.572694)
(0.00010379 0.000177291 0.598204)
(8.0486e-05 0.000208292 0.618684)
(5.16896e-05 0.000231388 0.633016)
(1.78053e-05 0.000243895 0.64039)
(-1.78427e-05 0.000243893 0.64039)
(-5.17259e-05 0.000231381 0.633016)
(-8.05206e-05 0.000208281 0.618684)
(-0.000103823 0.000177276 0.598204)
(-0.000120146 0.000141142 0.572694)
(0.00025628 0.000298331 0.774357)
(0.00022488 0.000371031 0.80716)
(0.000176206 0.000435088 0.833382)
(0.000113372 0.000483212 0.851696)
(3.91213e-05 0.000509297 0.861107)
(-3.91748e-05 0.000509294 0.861107)
(-0.000113424 0.000483204 0.851696)
(-0.000176255 0.000435074 0.833382)
(-0.000224926 0.000371012 0.807159)
(-0.000256321 0.00029831 0.774357)
(0.000431626 0.00049946 0.960119)
(0.000380299 0.000614818 0.998611)
(0.000298743 0.000717345 1.02922)
(0.000192109 0.000794388 1.05054)
(6.6291e-05 0.000836081 1.06149)
(-6.63607e-05 0.000836077 1.06149)
(-0.000192177 0.000794379 1.05054)
(-0.000298808 0.00071733 1.02922)
(-0.000380359 0.000614797 0.998611)
(-0.000431679 0.000499436 0.960119)
(0.000628952 0.000724121 1.12978)
(0.000553588 0.000880881 1.17238)
(0.000434367 0.00102018 1.20605)
(0.000278743 0.00112446 1.22944)
(9.60946e-05 0.00118072 1.24143)
(-9.61802e-05 0.00118072 1.24143)
(-0.000278827 0.00112445 1.22944)
(-0.000434447 0.00102016 1.20605)
(-0.000553661 0.000880859 1.17238)
(-0.000629017 0.000724096 1.12978)
(0.000827452 0.000947818 1.28314)
(0.000725268 0.00113702 1.32832)
(0.000567091 0.00130414 1.36379)
(0.00036272 0.00142844 1.38836)
(0.00012484 0.00149518 1.40092)
(-0.000124941 0.00149518 1.40092)
(-0.000362818 0.00142843 1.38836)
(-0.000567184 0.00130412 1.36379)
(-0.000725354 0.001137 1.32832)
(-0.000827529 0.000947794 1.28314)
(0.00100545 0.0011449 1.41996)
(0.000875659 0.00135091 1.4663)
(0.00068107 0.00153085 1.50243)
(0.000433694 0.00166339 1.52737)
(0.000148926 0.0017341 1.54008)
(-0.000149041 0.0017341 1.54008)
(-0.000433805 0.00166338 1.52737)
(-0.000681176 0.00153083 1.50243)
(-0.000875757 0.00135089 1.46629)
(-0.00100554 0.00114488 1.41996)
(0.00114499 0.00129337 1.53979)
(0.000988541 0.00149661 1.58624)
(0.000763092 0.00166947 1.62212)
(0.000482974 0.00179501 1.64669)
(0.000165325 0.00186135 1.65915)
(-0.00016545 0.00186135 1.65915)
(-0.000483097 0.00179501 1.64668)
(-0.000763209 0.00166947 1.62212)
(-0.000988649 0.0014966 1.58624)
(-0.00114509 0.00129336 1.53979)
(0.0012342 0.00139459 1.64192)
(0.00105063 0.00155834 1.6886)
(0.00080139 0.0016975 1.72332)
(0.00050299 0.00179643 1.74675)
(0.000171445 0.00184802 1.75855)
(-0.000171579 0.00184802 1.75855)
(-0.000503121 0.00179643 1.74675)
(-0.000801515 0.00169749 1.72331)
(-0.00105075 0.00155834 1.6886)
(-0.00123431 0.00139458 1.64192)
(-3.47571e-08 6.85422e-07 0.122534)
(-8.43092e-07 1.03668e-06 0.128603)
(-1.03266e-06 8.65067e-07 0.133495)
(-7.53092e-07 5.79255e-07 0.136929)
(-2.80567e-07 3.9616e-07 0.138699)
(2.75921e-07 3.95802e-07 0.138699)
(7.48574e-07 5.78199e-07 0.136929)
(1.02839e-06 8.63346e-07 0.133495)
(8.39109e-07 1.03433e-06 0.128603)
(3.14288e-08 6.82675e-07 0.122534)
(9.34572e-06 1.25005e-05 0.355236)
(6.35806e-06 1.61757e-05 0.371828)
(4.08506e-06 1.84226e-05 0.385187)
(2.38932e-06 1.97969e-05 0.394551)
(7.7537e-07 2.04805e-05 0.399373)
(-7.90287e-07 2.04794e-05 0.399373)
(-2.40381e-06 1.97938e-05 0.394551)
(-4.09872e-06 1.84177e-05 0.385187)
(-6.3707e-06 1.61691e-05 0.371828)