/*--------------------------------*- C++ -*----------------------------------*\
| =========                 |                                                 |
| \\      /  F ield         | OpenFOAM: The Open Source CFD Toolbox           |
|  \\    /   O peration     | Version:  2106                                  |
|   \\  /    A nd           | Website:  www.openfoam.com                      |
|    \\/     M anipulation  |                                                 |
\*---------------------------------------------------------------------------*/
FoamFile
{
    version     2.0;
    format      ascii;
    arch        "LSB;label=32;scalar=64";
    class       surfaceScalarField;
    location    "0.97";
    object      phi;
}
// * * * * * * * * * * * * * * * * * * * * * * * * * * * * * * * * * * * * * //

dimensions      [0 3 -1 0 0 0 0];

oriented        oriented;

internalField   nonuniform List<scalar> 
29100
(
0.00119026
0.151579
0.0815643
-1.57628e-10
0.00146465
0.156494
0.0896341
0.00125689
0.159939
0.0963752
0.000715805
0.162235
0.1012
-1.33621e-09
0.163387
0.103713
-0.000715808
0.163387
0.103713
-0.00125689
0.162235
0.1012
-0.00146465
0.159939
0.0963752
-0.00119026
0.156494
0.0896341
0.151579
0.0815643
-1.74683e-09
0.00238302
0.209876
0.156688
-3.50437e-10
0.00331009
0.214496
0.170319
0.00295233
0.217591
0.181464
0.00170789
0.219522
0.189345
-3.70578e-09
0.220469
0.193418
-0.0017079
0.220469
0.193418
-0.00295234
0.219522
0.189345
-0.0033101
0.217591
0.181464
-0.00238303
0.214496
0.170319
0.209876
0.156688
-4.80322e-09
0.00303993
0.2211
0.18614
-4.87272e-10
0.00429973
0.224048
0.201282
0.00385967
0.225969
0.21347
0.00223548
0.227017
0.222013
-6.03246e-09
0.227503
0.226403
-0.00223549
0.227503
0.226403
-0.00385968
0.227017
0.222013
-0.00429974
0.225969
0.21347
-0.00303993
0.224048
0.201282
0.2211
0.18614
-7.58815e-09
0.00347198
0.207774
0.193293
-5.8565e-10
0.00484402
0.209042
0.208573
0.00433916
0.209814
0.220718
0.00250872
0.210054
0.22917
-8.36204e-09
0.210126
0.233496
-0.00250874
0.210126
0.233496
-0.00433917
0.210054
0.22917
-0.00484403
0.209814
0.220718
-0.00347199
0.209042
0.208573
0.207774
0.193293
-1.0128e-08
0.00370302
0.182664
0.187881
-6.82936e-10
0.00509657
0.182639
0.202793
0.00455304
0.182538
0.214527
0.00262895
0.182206
0.222645
-1.07479e-08
0.181988
0.226786
-0.00262897
0.181988
0.226786
-0.00455306
0.182206
0.222645
-0.00509659
0.182538
0.214527
-0.00370303
0.182639
0.202793
0.182664
0.187881
-1.25218e-08
0.00378857
0.153106
0.175279
-8.10818e-10
0.00516295
0.152223
0.189671
0.0046028
0.151554
0.200903
0.00265618
0.150886
0.208634
-1.32545e-08
0.150506
0.212567
-0.00265621
0.150506
0.212567
-0.00460282
0.150886
0.208634
-0.00516297
0.151554
0.200903
-0.00378858
0.152223
0.189671
0.153106
0.175279
-1.47957e-08
0.00379663
0.12321
0.158644
-1.02219e-09
0.0051377
0.121843
0.172514
0.00457337
0.120859
0.183269
0.00263904
0.120046
0.190636
-1.58257e-08
0.119606
0.194375
-0.00263907
0.119606
0.194375
-0.0045734
0.120046
0.190636
-0.00513772
0.120859
0.183269
-0.00379665
0.121843
0.172514
0.12321
0.158644
-1.69925e-08
0.00376205
0.0952094
0.139819
-1.29776e-09
0.00508349
0.0936183
0.153224
0.00452497
0.0925155
0.163561
0.00261231
0.0917043
0.17061
-1.84337e-08
0.0912846
0.17418
-0.00261234
0.0912846
0.17418
-0.00452501
0.0917043
0.17061
-0.00508352
0.0925155
0.163561
-0.00376207
0.0936183
0.153224
0.0952094
0.139819
-1.90938e-08
0.00373019
0.070226
0.119869
-1.66416e-09
0.00506528
0.0685766
0.132872
0.0045102
0.0675288
0.142851
0.00260297
0.0668354
0.149626
-2.09151e-08
0.0664923
0.15305
-0.00260301
0.0664923
0.15305
-0.00451023
0.0668354
0.149626
-0.00506531
0.0675288
0.142851
-0.00373022
0.0685766
0.132872
0.070226
0.119869
-2.10357e-08
0.00395217
0.0993979
-2.16658e-09
0.0485267
0.00525645
0.112061
0.0472218
0.00462357
0.121728
0.0463931
0.00264832
0.128264
0.0458919
-2.30163e-08
0.131558
0.0456462
-0.00264837
0.131558
0.0456462
-0.00462361
0.128264
0.0458919
-0.00525649
0.121728
0.0463931
-0.00395219
0.112061
0.0472218
0.0993979
-2.27903e-08
0.0485266
-0.000242273
0.0368205
0.0449861
-2.35621e-10
-0.000244335
0.0400202
0.0496159
-0.000171724
0.0427241
0.0535785
-8.55108e-05
0.0446577
0.0564564
-2.34395e-09
0.045658
0.0579697
8.55063e-05
0.045658
0.0579697
0.000171719
0.0446577
0.0564564
0.000244332
0.0427241
0.0535785
0.00024227
0.0400202
0.0496159
0.0368205
0.0449861
-3.1094e-09
6.54934e-05
0.0813411
0.112102
-5.03894e-10
0.000255397
0.0871779
0.122971
0.000305091
0.0920318
0.132106
0.000204337
0.0954328
0.138671
-7.12026e-09
0.0971799
0.142101
-0.000204351
0.0971799
0.142101
-0.000305104
0.0954328
0.138671
-0.000255409
0.0920318
0.132106
-6.55035e-05
0.0871779
0.122971
0.0813411
0.112102
-9.18793e-09
0.000619834
0.113098
0.153763
-7.3659e-10
0.00104157
0.119862
0.168175
0.00101906
0.125414
0.18011
0.00062279
0.129229
0.188613
-1.19691e-08
0.131173
0.193032
-0.000622813
0.131173
0.193032
-0.00101908
0.129229
0.188613
-0.00104159
0.125414
0.18011
-0.00061985
0.119862
0.168175
0.113098
0.153763
-1.50084e-08
0.00124417
0.129735
0.175412
-9.58862e-10
0.00189269
0.136181
0.191606
0.0017809
0.141403
0.20484
0.00106363
0.144917
0.214199
-1.68939e-08
0.146692
0.219041
-0.00106366
0.146692
0.219041
-0.00178093
0.144917
0.214199
-0.00189271
0.141403
0.20484
-0.00124419
0.136181
0.191606
0.129735
0.175412
-2.04152e-08
0.00185474
0.132999
0.182762
-1.22197e-09
0.00270158
0.138431
0.199696
0.00249678
0.142764
0.213371
0.00147491
0.14561
0.222974
-2.18825e-08
0.14703
0.227923
-0.00147495
0.14703
0.227923
-0.00249682
0.14561
0.222974
-0.00270161
0.142764
0.213371
-0.00185477
0.138431
0.199696
0.132999
0.182762
-2.54367e-08
0.00240722
0.125943
0.179928
-1.56117e-09
0.00342127
0.130088
0.197
0.00312924
0.133317
0.210642
0.00183707
0.135377
0.220159
-2.69748e-08
0.136389
0.225045
-0.00183712
0.136389
0.225045
-0.00312929
0.135377
0.220159
-0.00342132
0.133317
0.210642
-0.00240726
0.130088
0.197
0.125943
0.179928
-3.00496e-08
0.0028783
0.111815
0.169894
-2.03886e-09
0.00403524
0.114666
0.186778
0.00366968
0.116807
0.200144
0.00214707
0.118124
0.209411
-3.19553e-08
0.118759
0.214152
-0.00214713
0.118759
0.214152
-0.00366974
0.118124
0.209411
-0.00403529
0.116807
0.200144
-0.00287834
0.114666
0.186778
0.111815
0.169894
-3.4278e-08
0.00326211
0.0935515
0.15482
-2.63103e-09
0.00455321
0.0952395
0.17136
0.0041319
0.0964455
0.184343
0.00241376
0.0971588
0.193293
-3.67842e-08
0.0974964
0.197856
-0.00241383
0.0974964
0.197856
-0.00413196
0.0971588
0.193293
-0.00455327
0.0964455
0.184343
-0.00326215
0.0952395
0.17136
0.0935515
0.15482
-3.80444e-08
0.00359472
0.0735687
0.136257
-3.44334e-09
0.00502473
0.0742872
0.152395
0.00455395
0.0748025
0.164965
0.0026561
0.0751036
0.173579
-4.10401e-08
0.0752461
0.177957
-0.00265618
0.0752461
0.177957
-0.00455402
0.0751036
0.173579
-0.00502479
0.0748025
0.164965
-0.00359477
0.0742872
0.152395
0.0735687
0.136257
-4.11663e-08
0.00402434
0.115303
-4.47447e-09
0.0536393
0.00557501
0.131049
0.0537488
0.00501321
0.143206
0.0538863
0.00290775
0.151488
0.0539846
-4.42822e-08
0.155681
0.0540304
-0.00290784
0.155681
0.0540304
-0.00501328
0.151488
0.0539846
-0.00557507
0.143206
0.0538863
-0.00402439
0.131049
0.0537488
0.115303
-4.35377e-08
0.0536393
3.96053e-05
0.0100785
0.034868
-2.94374e-10
3.55486e-05
0.0111209
0.038499
2.99605e-05
0.0120056
0.0415785
1.66058e-05
0.0126624
0.0438073
-2.5853e-09
0.0130084
0.0449778
-1.66109e-05
0.0130084
0.0449778
-2.99653e-05
0.0126624
0.0438073
-3.5553e-05
0.0120056
0.0415785
-3.96092e-05
0.0111209
0.038499
0.0100785
0.034868
-3.52913e-09
0.000283766
0.0305608
0.0913356
-6.29139e-10
0.000385405
0.0332937
0.100697
0.000344482
0.0355806
0.108572
0.000200953
0.0372301
0.114247
-8.17473e-09
0.0380918
0.117218
-0.000200969
0.0380918
0.117218
-0.000344497
0.0372301
0.114247
-0.000385419
0.0355806
0.108572
-0.000283778
0.0332937
0.100697
0.0305608
0.0913356
-1.06462e-08
0.000606117
0.0516488
0.132069
-9.42316e-10
0.000860098
0.0556861
0.145529
0.000779259
0.05902
0.156751
0.000456762
0.0613712
0.164794
-1.40903e-08
0.0625891
0.168992
-0.00045679
0.0625891
0.168992
-0.000779285
0.0613712
0.164794
-0.000860122
0.05902
0.156751
-0.000606137
0.0556861
0.145529
0.0516488
0.132069
-1.76125e-08
0.000976689
0.0675974
0.158487
-1.23915e-09
0.00140174
0.0722167
0.17465
0.00128033
0.0759852
0.187997
0.000751931
0.0785911
0.197507
-2.01618e-08
0.0799288
0.202453
-0.000751971
0.0799288
0.202453
-0.00128037
0.0785911
0.197507
-0.00140177
0.0759852
0.187997
-0.000976717
0.0722167
0.17465
0.0675974
0.158487
-2.41582e-08
0.00137017
0.0763927
0.172597
-1.61574e-09
0.00196267
0.0809293
0.190391
0.00179715
0.0845813
0.204941
0.00105572
0.0870586
0.215248
-2.6267e-08
0.0883176
0.22059
-0.00105577
0.0883176
0.22059
-0.00179719
0.0870586
0.215248
-0.00196271
0.0845814
0.204941
-0.0013702
0.0809293
0.190391
0.0763927
0.172597
-3.02162e-08
0.00176597
0.0780503
0.176505
-2.11242e-09
0.00251253
0.0820326
0.19515
0.00229961
0.0851837
0.210252
0.00135014
0.0872783
0.220888
-3.23977e-08
0.0883312
0.226381
-0.00135021
0.0883312
0.226381
-0.00229967
0.0872784
0.220888
-0.00251258
0.0851838
0.210252
-0.00176601
0.0820326
0.19515
0.0780503
0.176505
-3.56913e-08
0.00214059
0.0736504
0.172153
-2.78684e-09
0.00302686
0.0768133
0.191111
0.0027676
0.0792583
0.206329
0.00162397
0.0808498
0.216983
-3.82206e-08
0.0816407
0.222467
-0.00162404
0.0816407
0.222467
-0.00276767
0.0808498
0.216983
-0.00302692
0.0792583
0.206328
-0.00214064
0.0768133
0.191111
0.0736504
0.172153
-4.05725e-08
0.00247778
0.0647574
0.161235
-3.61441e-09
0.00349551
0.0670024
0.180153
0.00319442
0.0686945
0.195208
0.00187353
0.0697761
0.205688
-4.37081e-08
0.0703087
0.211062
-0.00187361
0.0703088
0.211062
-0.0031945
0.0697761
0.205688
-0.00349558
0.0686945
0.195208
-0.00247784
0.0670024
0.180153
0.0647574
0.161235
-4.47478e-08
0.00279014
0.0530465
0.145177
-4.70444e-09
0.00393445
0.0544082
0.163844
0.00358984
0.0554284
0.178576
0.00210247
0.0560781
0.188765
-4.83231e-08
0.0563977
0.19397
-0.00210257
0.0563977
0.19397
-0.00358992
0.0560781
0.188765
-0.00393453
0.0554284
0.178576
-0.0027902
0.0544082
0.163844
0.0530465
0.145177
-4.7996e-08
0.00313617
0.125156
-6.01031e-09
0.0400575
0.00438769
0.143489
0.0407167
0.00398069
0.157797
0.0412449
0.00232195
0.167625
0.0415996
-5.15542e-08
0.172626
0.0417749
-0.00232205
0.172626
0.0417749
-0.00398079
0.167625
0.0415996
-0.00438777
0.157797
0.0412449
-0.00313623
0.143489
0.0407167
0.125156
-5.02185e-08
0.0400575
-3.18719e-05
0.0041179
0.030782
-2.95212e-10
-4.55109e-05
0.00453458
0.0339781
-3.66796e-05
0.00488816
0.0366815
-2.0217e-05
0.00515106
0.0386398
-2.44995e-09
0.00528879
0.0396688
2.02122e-05
0.00528879
0.0396688
3.6675e-05
0.00515106
0.0386398
4.55067e-05
0.00488816
0.0366815
3.18682e-05
0.00453458
0.0339781
0.0041179
0.030782
-3.38787e-09
1.03324e-05
0.0127887
0.0826545
-6.50249e-10
1.78095e-05
0.0140136
0.0912101
2.22545e-05
0.0150515
0.0984043
1.58485e-05
0.0158081
0.103596
-7.9068e-09
0.0162049
0.106318
-1.5864e-05
0.0162049
0.106318
-2.22691e-05
0.0158081
0.103596
-1.78222e-05
0.0150515
0.0984043
-1.03432e-05
0.0140136
0.0912101
0.0127887
0.0826545
-1.03014e-08
0.00012509
0.0227674
0.121965
-1.02329e-09
0.000189686
0.0248021
0.134676
0.000182149
0.0265148
0.145295
0.000110967
0.0277443
0.152929
-1.3775e-08
0.0283863
0.156921
-0.000110994
0.0283863
0.156921
-0.000182174
0.0277443
0.152929
-0.000189709
0.0265149
0.145295
-0.000125109
0.0248021
0.134676
0.0227674
0.121965
-1.73039e-08
0.000297646
0.0315703
0.149386
-1.39407e-09
0.000443817
0.0341624
0.165144
0.000418389
0.0363234
0.178214
0.000250854
0.0378518
0.187567
-1.98781e-08
0.0386449
0.192446
-0.000250892
0.0386449
0.192446
-0.000418426
0.0378518
0.187567
-0.000443849
0.0363234
0.178214
-0.000297674
0.0341624
0.165144
0.0315703
0.149386
-2.38716e-08
0.000512216
0.037659
0.165996
-1.85586e-09
0.000752926
0.040464
0.183848
0.000704287
0.0427725
0.19854
0.000419539
0.0443806
0.209004
-2.60373e-08
0.0452087
0.214446
-0.00041959
0.0452087
0.214446
-0.000704334
0.0443806
0.209004
-0.000752967
0.0427726
0.19854
-0.000512251
0.040464
0.183848
0.0376591
0.165996
-2.99241e-08
0.000752592
0.0403737
0.173037
-2.44263e-09
0.0010927
0.0430668
0.192207
0.00101661
0.0452457
0.207855
0.00060326
0.0467389
0.218943
-3.21988e-08
0.0475013
0.224692
-0.000603323
0.0475013
0.224692
-0.00101667
0.0467389
0.218943
-0.00109275
0.0452457
0.207855
-0.000752633
0.0430668
0.192207
0.0403737
0.173037
-3.53523e-08
0.0010013
0.0397316
0.171794
-3.20899e-09
0.00144118
0.0420647
0.191673
0.00133585
0.0439115
0.207768
0.000790712
0.0451558
0.219111
-3.79677e-08
0.0457854
0.224973
-0.000790786
0.0457854
0.224973
-0.00133592
0.0451558
0.219111
-0.00144124
0.0439115
0.207768
-0.00100134
0.0420647
0.191673
0.0397316
0.171794
-4.01315e-08
0.0012452
0.0362146
0.163507
-4.13327e-09
0.00178484
0.0380344
0.183643
0.00165012
0.0394413
0.199813
0.000974804
0.0403746
0.211144
-4.33144e-08
0.0408429
0.216979
-0.000974888
0.0408429
0.216979
-0.0016502
0.0403746
0.211144
-0.00178491
0.0394413
0.199813
-0.00124525
0.0380344
0.183643
0.0362146
0.163507
-4.41386e-08
0.00148848
0.0305727
0.149331
-5.29718e-09
0.00212607
0.0318264
0.169415
0.00195794
0.0327804
0.185405
0.00115336
0.0334075
0.196536
-4.76888e-08
0.0337206
0.202246
-0.00115346
0.0337206
0.202246
-0.00195802
0.0334075
0.196536
-0.00212614
0.0327804
0.185405
-0.00148853
0.0318264
0.169415
0.0305727
0.149331
-4.71508e-08
0.00174574
0.130313
-6.6268e-09
0.0236696
0.00247527
0.150192
0.0243943
0.00226654
0.165821
0.0249647
0.0013295
0.176621
0.0253487
-5.0597e-08
0.182136
0.0255406
-0.00132959
0.182136
0.0255406
-0.00226663
0.176621
0.0253487
-0.00247535
0.165821
0.0249647
-0.0017458
0.150192
0.0243943
0.130313
-4.90885e-08
0.0236696
2.11616e-06
0.0013485
0.0294314
-2.77808e-10
-2.84137e-07
0.00149734
0.0324832
1.24285e-07
0.00162677
0.0350543
1.42661e-07
0.00172557
0.0369142
-2.11203e-09
0.00177826
0.0378907
-1.46801e-07
0.00177826
0.0378907
-1.28214e-07
0.00172557
0.0369142
2.80538e-07
0.00162677
0.0350543
-2.11926e-06
0.00149734
0.0324832
0.0013485
0.0294314
-2.99688e-09
3.11707e-05
0.00483843
0.0791334
-6.44938e-10
4.03151e-05
0.00534032
0.087358
3.71409e-05
0.00577152
0.0942627
2.20331e-05
0.00609185
0.0992451
-6.92271e-09
0.00626158
0.101857
-2.20467e-05
0.00626158
0.101857
-3.71537e-05
0.00609185
0.0992451
-4.03267e-05
0.00577152
0.0942627
-3.11808e-05
0.00534033
0.087358
0.00483843
0.0791334
-9.24632e-09
8.7015e-05
0.00933563
0.117381
-1.02376e-09
0.000123357
0.0102472
0.129733
0.000113875
0.0110234
0.140053
6.75942e-05
0.0115897
0.147478
-1.21668e-08
0.0118882
0.151363
-6.7618e-05
0.0118882
0.151363
-0.000113897
0.0115897
0.147478
-0.000123377
0.0110234
0.140053
-8.70322e-05
0.0102472
0.129733
0.00933564
0.117381
-1.54485e-08
0.000169399
0.0137199
0.144832
-1.40849e-09
0.000245995
0.0149704
0.160344
0.000228481
0.0160253
0.173229
0.000135693
0.0167834
0.182466
-1.76643e-08
0.0171804
0.187289
-0.000135727
0.0171804
0.187289
-0.000228513
0.0167834
0.182466
-0.000246024
0.0160253
0.173229
-0.000169423
0.0149704
0.160344
0.0137199
0.144832
-2.1341e-08
0.00027533
0.0171489
0.162292
-1.89246e-09
0.000401329
0.0185925
0.1801
0.000373513
0.019796
0.194797
0.00022177
0.0206485
0.20529
-2.32316e-08
0.0210918
0.210756
-0.000221816
0.0210918
0.210756
-0.000373555
0.0206485
0.20529
-0.000401367
0.019796
0.194797
-0.000275361
0.0185925
0.1801
0.017149
0.162292
-2.68041e-08
0.00039937
0.0191186
0.170668
-2.49573e-09
0.000580258
0.0205864
0.190032
0.000539842
0.0217921
0.2059
0.000320275
0.0226335
0.217178
-2.8802e-08
0.0230675
0.223037
-0.000320331
0.0230675
0.223037
-0.000539894
0.0226335
0.217178
-0.000580303
0.0217921
0.2059
-0.000399407
0.0205864
0.190032
0.0191186
0.170668
-3.17014e-08
0.00053395
0.0194512
0.170927
-3.2488e-09
0.000772414
0.0207914
0.19123
0.000717766
0.0218719
0.207743
0.000425406
0.0226144
0.219423
-3.39932e-08
0.0229942
0.225472
-0.000425473
0.0229942
0.225472
-0.000717827
0.0226144
0.219423
-0.000772467
0.0218719
0.207743
-0.000533992
0.0207914
0.19123
0.0194512
0.170927
-3.59976e-08
0.000672251
0.0182421
0.164044
-4.13529e-09
0.00096959
0.0193427
0.184795
0.000899425
0.0202121
0.201543
0.000532317
0.0208006
0.213325
-3.87769e-08
0.021099
0.219407
-0.000532392
0.021099
0.219407
-0.000899494
0.0208006
0.213325
-0.00096965
0.0202121
0.201543
-0.000672298
0.0193427
0.184795
0.0182422
0.164044
-3.95755e-08
0.000814242
0.0157839
0.150975
-5.22239e-09
0.00116881
0.0165879
0.171815
0.00107992
0.0172108
0.188495
0.000637443
0.0176271
0.200152
-4.26477e-08
0.0178368
0.206146
-0.000637526
0.0178368
0.206146
-0.00107999
0.0176271
0.200152
-0.00116887
0.0172109
0.188495
-0.000814293
0.016588
0.171815
0.0157839
0.150975
-4.22423e-08
0.000954498
0.132644
-6.41952e-09
0.0124983
0.00136219
0.153378
0.0129943
0.00125384
0.169756
0.013384
0.000737915
0.181116
0.0136483
-4.51714e-08
0.186929
0.0137814
-0.000738002
0.186929
0.0137814
-0.00125392
0.181116
0.0136483
-0.00136225
0.169756
0.013384
-0.000954551
0.153378
0.0129943
0.132644
-4.396e-08
0.0124983
-5.62252e-06
0.000588758
0.0288483
-2.5001e-10
-8.3802e-06
0.000647701
0.0318382
-6.63607e-06
0.000697566
0.034355
-3.65597e-06
0.000735474
0.0361758
-1.67452e-09
0.0007554
0.0371317
3.65254e-06
0.0007554
0.0371317
6.63286e-06
0.000735475
0.0361758
8.37737e-06
0.000697567
0.034355
5.61986e-06
0.000647702
0.0318382
0.000588758
0.0288483
-2.50272e-09
-8.48657e-07
0.00205142
0.0776716
-6.01453e-10
-1.876e-06
0.00225996
0.0857468
-5.98414e-07
0.00243766
0.0925213
1.91843e-07
0.00256976
0.09741
-5.54577e-09
0.00263975
0.0999726
-2.02065e-07
0.00263975
0.0999726
5.88221e-07
0.00256976
0.09741
1.86576e-06
0.00243767
0.0925213
8.40312e-07
0.00225996
0.0857467
0.00205143
0.0776716
-7.68969e-09
1.79545e-05
0.00399028
0.115424
-9.64253e-10
2.65651e-05
0.00438833
0.127596
2.6055e-05
0.00472756
0.137764
1.61006e-05
0.00497647
0.145081
-9.97738e-09
0.00510802
0.14891
-1.61203e-05
0.00510802
0.14891
-2.60734e-05
0.00497648
0.145081
-2.65814e-05
0.00472757
0.137764
-1.79686e-05
0.00438834
0.127596
0.00399028
0.115424
-1.28737e-08
5.14578e-05
0.00598063
0.142791
-1.33106e-09
7.66052e-05
0.00655384
0.158153
7.2922e-05
0.00703978
0.170921
4.40224e-05
0.00739201
0.18008
-1.4602e-08
0.0075773
0.184864
-4.4051e-05
0.0075773
0.184864
-7.29486e-05
0.00739201
0.18008
-7.66288e-05
0.00703979
0.170921
-5.14778e-05
0.00655385
0.158153
0.00598064
0.142791
-1.78318e-08
9.84202e-05
0.00764701
0.160527
-1.78117e-09
0.000145791
0.00833962
0.178267
0.000137667
0.00892131
0.192924
8.25255e-05
0.00933769
0.2034
-1.92839e-08
0.00955541
0.20886
-8.25632e-05
0.00955541
0.20886
-0.000137702
0.00933769
0.2034
-0.000145822
0.00892132
0.192924
-9.84458e-05
0.00833963
0.178267
0.00764702
0.160527
-2.24497e-08
0.00015668
0.00872121
0.169438
-2.33005e-09
0.000230471
0.00945633
0.188842
0.000216661
0.0100655
0.204769
0.000129414
0.0104958
0.216107
-2.39731e-08
0.0107192
0.222002
-0.00012946
0.0107192
0.222002
-0.000216704
0.0104958
0.216107
-0.000230508
0.0100656
0.204769
-0.00015671
0.00945634
0.188842
0.00872122
0.169437
-2.66045e-08
0.000222967
0.0090652
0.17036
-3.00002e-09
0.000325994
0.00976421
0.190819
0.000305482
0.0103336
0.207495
0.000182019
0.01073
0.219312
-2.83413e-08
0.0109342
0.225439
-0.000182075
0.0109343
0.225439
-0.000305532
0.0107301
0.219312
-0.000326038
0.0103337
0.207495
-0.000223002
0.00976422
0.190819
0.00906522
0.17036
-3.02593e-08
0.000294215
0.00866877
0.164146
-3.7784e-09
0.000428365
0.00926637
0.185158
0.000400134
0.00974395
0.202161
0.000237831
0.0100715
0.214146
-3.23641e-08
0.0102388
0.22034
-0.000237894
0.0102388
0.22034
-0.000400191
0.0100715
0.214146
-0.000428415
0.00974396
0.202161
-0.000294254
0.00926638
0.185158
0.00866879
0.164146
-3.33114e-08
0.000370585
0.00762888
0.151644
-4.70542e-09
0.000535842
0.00808513
0.172831
0.000497755
0.00844224
0.189835
0.000294794
0.00868363
0.201743
-3.56185e-08
0.00880591
0.207873
-0.000294863
0.00880592
0.207873
-0.000497818
0.00868363
0.201743
-0.000535896
0.00844225
0.189834
-0.000370627
0.00808514
0.172831
0.00762889
0.151644
-3.56007e-08
0.000447139
0.133699
-5.68695e-09
0.00612721
0.000642746
0.154844
0.00642277
0.000594784
0.17159
0.00665615
0.000351181
0.183228
0.00681538
-3.77534e-08
0.18919
0.00689593
-0.000351254
0.18919
0.00689593
-0.000594851
0.183228
0.00681538
-0.000642802
0.17159
0.00665615
-0.000447183
0.154844
0.00642278
0.133699
-3.71081e-08
0.00612721
-8.55697e-07
0.000191995
0.0286571
-2.01086e-10
-1.65654e-06
0.000212658
0.0316264
-1.20432e-06
0.000230636
0.0341239
-6.43108e-07
0.000244747
0.0359305
-1.30152e-09
0.000252276
0.0368787
6.4053e-07
0.000252276
0.0368787
1.20188e-06
0.000244748
0.0359305
1.65425e-06
0.000230637
0.0341239
8.53609e-07
0.000212659
0.0316264
0.000191996
0.0286571
-1.93888e-09
1.86408e-06
0.000749272
0.0771125
-5.03782e-10
1.98957e-06
0.0008297
0.0851296
2.15716e-06
0.000899352
0.0918524
1.41257e-06
0.000952055
0.0967034
-4.3597e-09
0.000980188
0.0992461
-1.42114e-06
0.000980188
0.0992461
-2.16525e-06
0.000952056
0.0967034
-1.99683e-06
0.000899354
0.0918524
-1.87039e-06
0.000829702
0.0851296
0.000749275
0.0771125
-5.98855e-09
1.00832e-05
0.00154055
0.114623
-8.23623e-10
1.41604e-05
0.00170267
0.126719
1.34467e-05
0.00184241
0.136821
8.14608e-06
0.00194629
0.144092
-7.77796e-09
0.00200156
0.147897
-8.16132e-06
0.00200156
0.147897
-1.3461e-05
0.00194629
0.144092
-1.41733e-05
0.00184242
0.136821
-1.00943e-05
0.00170268
0.126719
0.00154055
0.114623
-1.01212e-08
2.44581e-05
0.00239596
0.141911
-1.14718e-09
3.56367e-05
0.00263949
0.157205
3.35681e-05
0.00284803
0.169917
2.01384e-05
0.00300097
0.179038
-1.14187e-08
0.00308194
0.183804
-2.01607e-05
0.00308195
0.183804
-3.35889e-05
0.00300097
0.179038
-3.56553e-05
0.00284803
0.169917
-2.44738e-05
0.0026395
0.157205
0.00239597
0.141911
-1.41088e-08
4.50592e-05
0.00315315
0.159725
-1.53674e-09
6.61755e-05
0.00345827
0.177427
6.22341e-05
0.00371713
0.192059
3.72192e-05
0.00390458
0.202521
-1.51414e-08
0.00400323
0.207976
-3.72488e-05
0.00400323
0.207976
-6.22616e-05
0.00390458
0.202521
-6.61998e-05
0.00371713
0.192059
-4.50794e-05
0.00345828
0.177427
0.00315316
0.159724
-1.78434e-08
7.13181e-05
0.00368365
0.168836
-2.00092e-09
0.00010469
0.00401811
0.188249
9.83247e-05
0.0042983
0.204195
5.86984e-05
0.00449852
0.215553
-1.88834e-08
0.00460317
0.221461
-5.87353e-05
0.00460317
0.221461
-9.83587e-05
0.00449853
0.215553
-0.00010472
0.0042983
0.204194
-7.13425e-05
0.00401812
0.188249
0.00368366
0.168836
-2.12223e-08
0.000102031
0.00390891
0.170033
-2.54803e-09
0.000149369
0.00423643
0.190553
0.000140066
0.00450641
0.207296
8.3488e-05
0.00469663
0.219171
-2.23802e-08
0.00479525
0.225331
-8.35316e-05
0.00479526
0.225331
-0.000140106
0.00469664
0.219171
-0.000149404
0.00450642
0.207296
-0.000102059
0.00423644
0.190553
0.00390892
0.170033
-2.42133e-08
0.000135895
0.00380584
0.164113
-3.16892e-09
0.000198353
0.00409385
0.185239
0.000185526
0.00432686
0.202354
0.000110357
0.0044885
0.21443
-2.56109e-08
0.00457155
0.220674
-0.000110406
0.00457155
0.220674
-0.000185572
0.0044885
0.214429
-0.000198393
0.00432687
0.202353
-0.000135926
0.00409386
0.185238
0.00380585
0.164113
-2.6733e-08
0.000172648
0.00340295
0.151874
-3.89424e-09
0.000250202
0.00362946
0.173218
0.000232781
0.00380836
0.19037
0.000138006
0.00393036
0.202396
-2.82451e-08
0.00399247
0.20859
-0.000138061
0.00399247
0.20859
-0.000232831
0.00393037
0.202396
-0.000250245
0.00380837
0.19037
-0.000172682
0.00362947
0.173218
0.00340296
0.151874
-2.86565e-08
0.000207703
0.134119
-4.64935e-09
0.00277484
0.000299995
0.155456
0.00292549
0.000278571
0.172376
0.00304475
0.000164835
0.184145
0.00312651
-3.00147e-08
0.19018
0.00316803
-0.000164893
0.19018
0.00316803
-0.000278624
0.184145
0.00312651
-0.00030004
0.172375
0.00304476
-0.000207738
0.155456
0.0029255
0.134119
-2.99796e-08
0.00277484
-1.3914e-06
7.83073e-05
0.0285802
-1.53286e-10
-2.00267e-06
8.59756e-05
0.031541
-1.60734e-06
9.25382e-05
0.034031
-8.86717e-07
9.76491e-05
0.0358321
-9.5732e-10
0.000100349
0.0367775
8.84837e-07
0.00010035
0.0367775
1.60555e-06
9.76494e-05
0.0358321
2.00101e-06
9.25386e-05
0.034031
1.38988e-06
8.59761e-05
0.031541
7.83077e-05
0.0285802
-1.43047e-09
-1.62705e-06
0.000294883
0.0768975
-4.01119e-10
-2.44693e-06
0.000325734
0.0848906
-1.9574e-06
0.000352388
0.0915921
-1.03789e-06
0.000372603
0.0964276
-3.23311e-09
0.000383383
0.098962
1.03155e-06
0.000383383
0.098962
1.95141e-06
0.000372603
0.0964275
2.44143e-06
0.00035239
0.0915921
1.6221e-06
0.000325736
0.0848906
0.000294884
0.0768975
-4.47685e-09
8.79808e-07
0.0006074
0.114309
-6.58674e-10
1.16067e-06
0.000671965
0.126372
1.36925e-06
0.000727629
0.136446
9.56931e-07
0.000769224
0.143696
-5.79228e-09
0.000791405
0.14749
-9.68271e-07
0.000791405
0.14749
-1.3799e-06
0.000769226
0.143696
-1.17014e-06
0.000727631
0.136446
-8.87571e-07
0.000671968
0.126372
0.000607404
0.114309
-7.50564e-09
6.0972e-06
0.00095672
0.141555
-9.29589e-10
9.01768e-06
0.00105692
0.156817
8.7384e-06
0.00114297
0.169502
5.35083e-06
0.00120648
0.178605
-8.54201e-09
0.00124022
0.18336
-5.36752e-06
0.00124022
0.18336
-8.754e-06
0.00120648
0.178605
-9.03159e-06
0.00114297
0.169502
-6.10905e-06
0.00105692
0.156817
0.000956725
0.141555
-1.06299e-08
1.42755e-05
0.0012787
0.159388
-1.24297e-09
2.1168e-05
0.00140807
0.177069
2.01499e-05
0.00151829
0.191684
1.21544e-05
0.00159867
0.202137
-1.13722e-08
0.00164114
0.207588
-1.21766e-05
0.00164114
0.207588
-2.01705e-05
0.00159867
0.202137
-2.11862e-05
0.00151829
0.191684
-1.42908e-05
0.00140807
0.177069
0.00127871
0.159388
-1.3552e-08
2.51761e-05
0.00151751
0.168572
-1.6048e-09
3.72377e-05
0.00166331
0.187981
3.52402e-05
0.00178609
0.203929
2.11463e-05
0.00187448
0.215291
-1.42289e-08
0.00192088
0.221203
-2.1174e-05
0.00192088
0.221203
-3.52659e-05
0.00187449
0.215291
-3.72602e-05
0.0017861
0.203929
-2.51946e-05
0.00166332
0.187981
0.00151752
0.168572
-1.62046e-08
3.83542e-05
0.00163459
0.169877
-2.01954e-09
5.65378e-05
0.00178113
0.190417
5.33275e-05
0.00190264
0.207183
3.19054e-05
0.00198891
0.219078
-1.69145e-08
0.00203383
0.22525
-3.19384e-05
0.00203383
0.22525
-5.33579e-05
0.00198891
0.219078
-5.65642e-05
0.00190265
0.207183
-3.83756e-05
0.00178114
0.190417
0.0016346
0.169877
-1.85751e-08
5.33225e-05
0.00161341
0.164081
-2.48321e-09
7.83247e-05
0.00174554
0.185249
7.36105e-05
0.00185313
0.202408
4.39132e-05
0.00192832
0.21452
-1.94091e-08
0.00196711
0.220785
-4.3951e-05
0.00196711
0.220785
-7.36452e-05
0.00192832
0.21452
-7.83547e-05
0.00185314
0.202408
-5.33464e-05
0.00174555
0.185249
0.00161342
0.164081
-2.06016e-08
7.00504e-05
0.00145994
0.151958
-3.0114e-09
0.000102011
0.00156657
0.173365
9.52559e-05
0.00165129
0.190579
5.66002e-05
0.00170944
0.202654
-2.14718e-08
0.00173914
0.208875
-5.66419e-05
0.00173914
0.208875
-9.5294e-05
0.00170944
0.202654
-0.000102044
0.0016513
0.190579
-7.00763e-05
0.00156657
0.173365
0.00145995
0.151958
-2.21959e-08
8.63259e-05
0.134291
-3.54419e-09
0.00120222
0.000125321
0.155709
0.00127507
0.000116813
0.172702
0.00133298
6.92755e-05
0.184529
0.00137283
-2.2909e-08
0.190595
0.00139312
-6.93199e-05
0.190595
0.00139312
-0.000116853
0.184529
0.00137283
-0.000125355
0.172702
0.00133298
-8.63533e-05
0.155709
0.00127507
0.13429
-2.33724e-08
0.00120222
-4.02634e-07
2.05259e-05
0.0285601
-1.04748e-10
-6.18938e-07
2.27343e-05
0.0315185
-4.9606e-07
2.47492e-05
0.0340061
-2.75027e-07
2.64053e-05
0.0358055
-6.76738e-10
2.72982e-05
0.0367499
2.737e-07
2.72982e-05
0.0367499
4.94793e-07
2.64055e-05
0.0358055
6.17759e-07
2.47495e-05
0.0340061
4.01559e-07
2.27347e-05
0.0315185
2.05262e-05
0.0285601
-1.01272e-09
-5.15229e-07
9.18797e-05
0.0768267
-2.8508e-10
-8.74666e-07
0.000102275
0.0848115
-7.27801e-07
0.000111523
0.0915052
-3.97477e-07
0.000118716
0.0963349
-2.30525e-09
0.000122597
0.0988663
3.92962e-07
0.000122597
0.0988663
7.23527e-07
0.000118716
0.0963349
8.70732e-07
0.000111524
0.0915052
5.11683e-07
0.000102276
0.0848114
9.18807e-05
0.0768267
-3.20652e-09
3.5381e-07
0.00020403
0.114197
-4.85012e-10
3.30718e-07
0.000227301
0.126247
3.65151e-07
0.000247732
0.13631
2.53883e-07
0.000263268
0.143551
-4.14646e-09
0.000271625
0.147341
-2.61997e-07
0.000271625
0.147341
-3.72795e-07
0.000263269
0.143551
-3.37509e-07
0.000247734
0.13631
-3.59359e-07
0.000227304
0.126247
0.000204033
0.114197
-5.40368e-09
2.29426e-06
0.00033636
0.141421
-6.96331e-10
3.23777e-06
0.000374088
0.15667
3.08199e-06
0.000406943
0.169343
1.87113e-06
0.00043154
0.178438
-6.14041e-09
0.000444703
0.183189
-1.88314e-06
0.000444703
0.183189
-3.09322e-06
0.000431542
0.178438
-3.24781e-06
0.000406946
0.169343
-2.3028e-06
0.000374092
0.15667
0.000336364
0.141421
-7.70608e-09
5.46777e-06
0.000464443
0.159255
-9.36428e-10
7.96722e-06
0.000514812
0.176926
7.52731e-06
0.000558242
0.191534
4.52294e-06
0.000590312
0.201981
-8.20718e-09
0.00060737
0.207429
-4.53898e-06
0.000607371
0.207429
-7.54225e-06
0.000590315
0.201981
-7.98047e-06
0.000558246
0.191533
-5.47886e-06
0.000514817
0.176926
0.000464449
0.159255
-9.88768e-09
9.83036e-06
0.0005653
0.168461
-1.2077e-09
1.44432e-05
0.000623649
0.187868
1.36259e-05
0.000673329
0.203814
8.16264e-06
0.000709512
0.215177
-1.03039e-08
0.00072862
0.221089
-8.18275e-06
0.000728621
0.221089
-1.36446e-05
0.000709515
0.215177
-1.44596e-05
0.000673334
0.203814
-9.84386e-06
0.000623655
0.187868
0.000565306
0.168461
-1.18943e-08
1.52386e-05
0.000621553
0.169806
-1.50944e-09
2.24267e-05
0.000681604
0.190352
2.1134e-05
0.00073193
0.207126
1.26374e-05
0.000768041
0.219028
-1.22916e-08
0.000786952
0.225204
-1.26614e-05
0.000786953
0.225204
-2.11562e-05
0.000768044
0.219028
-2.2446e-05
0.000731935
0.207126
-1.52543e-05
0.00068161
0.190352
0.00062156
0.169806
-1.37127e-08
2.15065e-05
0.000624111
0.164057
-1.8381e-09
3.16052e-05
0.000679454
0.185241
2.97062e-05
0.000724951
0.202417
1.7722e-05
0.00075704
0.214543
-1.41507e-08
0.000773676
0.220816
-1.77496e-05
0.000773677
0.220816
-2.97316e-05
0.000757044
0.214543
-3.16272e-05
0.000724956
0.202417
-2.15242e-05
0.000679459
0.185241
0.000624117
0.164057
-1.52982e-08
2.85583e-05
0.000573124
0.15198
-2.20253e-09
4.16277e-05
0.00061877