/*--------------------------------*- C++ -*----------------------------------*\
| =========                 |                                                 |
| \\      /  F ield         | OpenFOAM: The Open Source CFD Toolbox           |
|  \\    /   O peration     | Version:  2106                                  |
|   \\  /    A nd           | Website:  www.openfoam.com                      |
|    \\/     M anipulation  |                                                 |
\*---------------------------------------------------------------------------*/
FoamFile
{
    version     2.0;
    format      ascii;
    arch        "LSB;label=32;scalar=64";
    class       surfaceScalarField;
    location    "0.11";
    object      phi;
}
// * * * * * * * * * * * * * * * * * * * * * * * * * * * * * * * * * * * * * //

dimensions      [0 3 -1 0 0 0 0];

oriented        oriented;

internalField   nonuniform List<scalar> 
29100
(
0.00117711
0.149586
0.0816937
-2.40805e-10
0.00145177
0.15437
0.089784
0.00124623
0.157717
0.0965446
0.000710024
0.15994
0.101385
-1.56406e-09
0.161054
0.103907
-0.000710027
0.161054
0.103907
-0.00124624
0.15994
0.101385
-0.00145177
0.157717
0.0965446
-0.00117711
0.15437
0.089784
0.149586
0.0816937
-5.35616e-09
0.00233975
0.20519
0.157684
-2.6467e-10
0.00325379
0.209431
0.171437
0.00290349
0.212223
0.182689
0.00168013
0.213935
0.190651
-3.82502e-09
0.214768
0.194766
-0.00168014
0.214768
0.194766
-0.0029035
0.213935
0.190651
-0.0032538
0.212223
0.182689
-0.00233976
0.209431
0.171437
0.20519
0.157684
-1.24149e-08
0.00295206
0.213279
0.187757
-4.36123e-10
0.00417721
0.215549
0.203051
0.00375028
0.216918
0.215365
0.00217218
0.217573
0.223998
-6.03335e-09
0.217854
0.228436
-0.0021722
0.217854
0.228436
-0.00375029
0.217573
0.223998
-0.00417722
0.216918
0.215365
-0.00295208
0.215549
0.203051
0.213279
0.187757
-1.8267e-08
0.00332178
0.19695
0.194977
-6.56578e-10
0.00462965
0.197285
0.210333
0.00414416
0.197298
0.222529
0.00239472
0.197004
0.231011
-8.47901e-09
0.196798
0.23535
-0.00239474
0.196798
0.23535
-0.00414418
0.197004
0.231011
-0.00462968
0.197298
0.222529
-0.0033218
0.197285
0.210333
0.19695
0.194977
-2.30201e-08
0.00347493
0.169516
0.189101
-9.72913e-10
0.00476843
0.168419
0.203934
0.00425148
0.167451
0.215577
0.00245162
0.166517
0.223615
-1.14769e-08
0.165988
0.227711
-0.00245164
0.165988
0.227711
-0.0042515
0.166517
0.223615
-0.00476845
0.167451
0.215577
-0.00347496
0.168419
0.203934
0.169516
0.189101
-2.73078e-08
0.0034711
0.138681
0.175675
-1.39333e-09
0.00470591
0.136728
0.189799
0.00418084
0.135202
0.200776
0.00240737
0.133947
0.208305
-1.51078e-08
0.133267
0.212127
-0.0024074
0.133267
0.212127
-0.00418087
0.133947
0.208305
-0.00470594
0.135202
0.200776
-0.00347113
0.136728
0.189799
0.138681
0.175675
-3.13373e-08
0.00338396
0.108703
0.158077
-1.80552e-09
0.0045449
0.10639
0.171503
0.00402546
0.104658
0.181855
0.0023157
0.103342
0.188912
-1.95815e-08
0.102648
0.192484
-0.00231574
0.102648
0.192484
-0.00402549
0.103342
0.188912
-0.00454494
0.104658
0.181855
-0.00338399
0.10639
0.171503
0.108703
0.158077
-3.52527e-08
0.00325333
0.0817433
0.138361
-2.28672e-09
0.00435498
0.0794117
0.151185
0.00385276
0.0777315
0.16101
0.00221602
0.0765369
0.167673
-2.53405e-08
0.0759249
0.171037
-0.00221607
0.0759249
0.171037
-0.00385281
0.0765369
0.167673
-0.00435503
0.0777314
0.16101
-0.00325337
0.0794117
0.151185
0.0817433
0.138361
-3.91238e-08
0.00312467
0.0586971
0.117747
-2.86378e-09
0.00420531
0.0565389
0.130083
0.00372122
0.0550983
0.139487
0.00213932
0.0541477
0.145838
-3.23676e-08
0.0536766
0.149036
-0.00213938
0.0536766
0.149036
-0.00372128
0.0541477
0.145838
-0.00420537
0.0550983
0.139487
-0.00312471
0.0565389
0.130083
0.0586971
0.117747
-4.25217e-08
0.00325154
0.0969355
-3.89885e-09
0.0395068
0.00427782
0.108883
0.0379039
0.00373153
0.117954
0.0368499
0.00212597
0.124056
0.0361983
-3.97924e-08
0.127123
0.0358778
-0.00212605
0.127123
0.0358778
-0.0037316
0.124056
0.0361983
-0.00427788
0.117954
0.0368499
-0.00325159
0.108883
0.0379038
0.0969355
-4.48231e-08
0.0395068
-0.000239948
0.0347505
0.0471832
-3.93407e-10
-0.000239825
0.0377378
0.0520461
-0.000168633
0.04027
0.0562034
-8.38081e-05
0.0420764
0.0592238
-2.05337e-09
0.0430102
0.0608125
8.38039e-05
0.0430102
0.0608125
0.000168628
0.0420764
0.0592238
0.000239819
0.04027
0.0562034
0.000239942
0.0377378
0.0520461
0.0347505
0.0471832
-7.15522e-09
2.78e-05
0.0746445
0.117762
-1.0979e-09
0.000200368
0.0798055
0.129197
0.000254549
0.084105
0.1388
0.000174563
0.0871028
0.145704
-5.75779e-09
0.0886384
0.149313
-0.000174575
0.0886384
0.149313
-0.000254562
0.0871028
0.145704
-0.000200383
0.084105
0.1388
-2.78163e-05
0.0798055
0.129197
0.0746445
0.117762
-1.74488e-08
0.000503436
0.100703
0.161195
-1.39397e-09
0.000869913
0.106257
0.176234
0.000861405
0.110813
0.188665
0.000529826
0.113914
0.197519
-9.28431e-09
0.115484
0.20212
-0.000529845
0.115484
0.20212
-0.000861425
0.113914
0.197519
-0.000869936
0.110814
0.188665
-0.00050346
0.106257
0.176234
0.100703
0.161195
-2.63273e-08
0.00101465
0.111839
0.182826
-1.67499e-09
0.00155368
0.116628
0.199422
0.00146748
0.120494
0.212934
0.000878392
0.123047
0.222467
-1.30214e-08
0.12432
0.227393
-0.000878419
0.12432
0.227393
-0.00146751
0.123047
0.222467
-0.00155371
0.120494
0.212934
-0.00101469
0.116628
0.199422
0.111839
0.182826
-3.35952e-08
0.00148289
0.110811
0.188645
-2.05593e-09
0.00215499
0.114338
0.205551
0.00198985
0.117123
0.219113
0.00117494
0.118887
0.22859
-1.73234e-08
0.119747
0.233459
-0.00117497
0.119747
0.233459
-0.00198988
0.118887
0.22859
-0.00215502
0.117123
0.219113
-0.00148292
0.114338
0.205551
0.110811
0.188645
-3.98814e-08
0.00187186
0.101319
0.183295
-2.59735e-09
0.00264011
0.103544
0.199825
0.00240442
0.105233
0.212902
0.00140812
0.106232
0.221956
-2.24493e-08
0.1067
0.226582
-0.00140817
0.1067
0.226582
-0.00240447
0.106232
0.221956
-0.00264015
0.105233
0.212902
-0.00187191
0.103544
0.199825
0.101319
0.183295
-4.52111e-08
0.00216896
0.0868547
0.170373
-3.19906e-09
0.00300764
0.0879816
0.186227
0.00271726
0.0887617
0.198617
0.00158385
0.0891558
0.207122
-2.87164e-08
0.0893219
0.211446
-0.00158391
0.0893219
0.211446
-0.00271732
0.0891558
0.207122
-0.00300769
0.0887617
0.198617
-0.00216901
0.0879816
0.186227
0.0868547
0.170373
-4.96999e-08
0.00237788
0.0702371
0.152601
-4.21643e-09
0.00328004
0.0705414
0.167723
0.00295499
0.0706755
0.179421
0.00171897
0.0706734
0.187392
-3.62042e-08
0.0706513
0.191427
-0.00171905
0.0706513
0.191427
-0.00295505
0.0706734
0.187392
-0.00328011
0.0706755
0.179421
-0.00237794
0.0705414
0.167723
0.0702371
0.152601
-5.32782e-08
0.00253779
0.0534954
0.131951
-5.97252e-09
0.00351608
0.0532314
0.146415
0.00316652
0.0530001
0.157512
0.0018395
0.0528108
0.165027
-4.46313e-08
0.0527089
0.168818
-0.00183959
0.0527089
0.168818
-0.0031666
0.0528108
0.165027
-0.00351615
0.0530001
0.157512
-0.00253785
0.0532314
0.146415
0.0534954
0.131951
-5.50096e-08
0.00281748
0.109777
-7.74444e-09
0.0378363
0.0038613
0.123705
0.0373656
0.00344206
0.134321
0.0370523
0.00198516
0.141472
0.0368517
-5.19888e-08
0.145068
0.0367489
-0.00198527
0.145068
0.0367489
-0.00344215
0.141472
0.0368517
-0.00386137
0.134321
0.0370523
-0.00281754
0.123705
0.0373656
0.109777
-5.33428e-08
0.0378363
4.19654e-05
0.00837766
0.0387636
-2.97214e-10
3.90006e-05
0.00924236
0.0428067
3.18195e-05
0.0099791
0.0462315
1.74689e-05
0.010525
0.0487132
-1.90509e-09
0.0108126
0.0500174
-1.74727e-05
0.0108126
0.0500174
-3.18238e-05
0.010525
0.0487132
-3.90058e-05
0.0099791
0.0462315
-4.19715e-05
0.00924236
0.0428067
0.00837766
0.0387636
-6.84041e-09
0.000253193
0.0248504
0.101036
-5.11697e-10
0.00034029
0.0269978
0.111355
0.000301795
0.0287961
0.120022
0.000175456
0.030086
0.12627
-5.47527e-09
0.0307583
0.129542
-0.000175467
0.0307583
0.129542
-0.000301807
0.030086
0.12627
-0.000340304
0.0287961
0.120022
-0.000253208
0.0269978
0.111355
0.0248504
0.101036
-1.68694e-08
0.000508604
0.0408725
0.144665
-8.68285e-10
0.000715512
0.043841
0.159184
0.000644976
0.0462845
0.171248
0.000377097
0.0479896
0.179883
-8.81133e-09
0.0488682
0.184388
-0.000377115
0.0488682
0.184388
-0.000644996
0.0479896
0.179883
-0.000715534
0.0462845
0.171248
-0.000508628
0.043841
0.159184
0.0408725
0.144665
-2.5438e-08
0.0007799
0.0518377
0.171081
-1.32983e-09
0.00111041
0.0549694
0.187963
0.00100942
0.0575048
0.201815
0.000591254
0.0592276
0.211647
-1.23441e-08
0.0601037
0.216749
-0.000591279
0.0601037
0.216749
-0.00100944
0.0592276
0.211647
-0.00111044
0.0575049
0.201815
-0.000779931
0.0549694
0.187963
0.0518377
0.171081
-3.23383e-08
0.00104568
0.0566467
0.182791
-1.91708e-09
0.00148511
0.0594384
0.200643
0.00135261
0.0616575
0.215093
0.000792047
0.0631219
0.225256
-1.62829e-08
0.0638549
0.2305
-0.00079208
0.0638549
0.2305
-0.00135264
0.0631219
0.225256
-0.00148514
0.0616575
0.215093
-0.00104571
0.0594384
0.200643
0.0566467
0.182791
-3.80609e-08
0.00129201
0.0559197
0.18273
-2.71405e-09
0.00182014
0.0581037
0.200631
0.00165544
0.0597975
0.214927
0.000968223
0.0608767
0.224888
-2.0795e-08
0.0614064
0.229999
-0.000968264
0.0614064
0.229999
-0.00165548
0.0608767
0.224888
-0.00182018
0.0597975
0.214927
-0.00129205
0.0581037
0.200631
0.0559197
0.18273
-4.25529e-08
0.00150487
0.0510012
0.173787
-3.71558e-09
0.00210448
0.0525063
0.191224
0.00191073
0.053631
0.204977
0.00111643
0.0543168
0.214476
-2.61509e-08
0.0546451
0.219324
-0.00111649
0.0546451
0.219324
-0.00191078
0.0543168
0.214476
-0.00210453
0.053631
0.204977
-0.00150492
0.0525063
0.191224
0.0510012
0.173787
-4.57153e-08
0.00167682
0.0434027
0.158522
-5.04676e-09
0.00233988
0.0442771
0.175289
0.00212377
0.0448988
0.188369
0.00124048
0.0452584
0.197333
-3.22397e-08
0.0454259
0.201887
-0.00124054
0.0454259
0.201887
-0.00212383
0.0452584
0.197333
-0.00233994
0.0448988
0.188369
-0.00167687
0.0442771
0.175289
0.0434027
0.158522
-4.71955e-08
0.00182339
0.0344952
0.139035
-7.18259e-09
0.0025511
0.0348479
0.155117
0.00231469
0.0350982
0.167549
0.00135074
0.0352372
0.176012
-3.84247e-08
0.0353007
0.180294
-0.00135082
0.0353007
0.180294
-0.00231475
0.0352372
0.176012
-0.00255116
0.0350982
0.167549
-0.00182344
0.0348479
0.155116
0.0344952
0.139035
-4.61903e-08
0.00202698
0.116921
-9.41803e-09
0.0253243
0.00280354
0.132409
0.0253668
0.00252295
0.144287
0.0254129
0.0014641
0.152323
0.0254453
-4.26968e-08
0.156374
0.0254593
-0.00146418
0.156374
0.0254593
-0.00252302
0.152323
0.0254453
-0.0028036
0.144287
0.0254129
-0.00202702
0.132409
0.0253668
0.116921
-4.18576e-08
0.0253243
-3.13433e-05
0.00315711
0.0356378
-2.48652e-10
-4.44286e-05
0.003474
0.0393458
-3.69236e-05
0.00374503
0.042479
-2.05891e-05
0.00394536
0.0447515
-1.55379e-09
0.00405018
0.0459467
2.05858e-05
0.00405018
0.0459467
3.69198e-05
0.00394536
0.0447515
4.44242e-05
0.00374503
0.042479
3.13382e-05
0.003474
0.0393458
0.00315711
0.0356378
-5.69864e-09
-1.06369e-05
0.00936846
0.0948353
-6.07979e-10
-1.28165e-05
0.0102378
0.104593
-7.22446e-06
0.0109784
0.112783
-2.01124e-06
0.0115149
0.118695
-4.57006e-09
0.0117954
0.121795
2.00172e-06
0.0117954
0.121795
7.21398e-06
0.0115149
0.118695
1.28043e-05
0.0109784
0.112783
1.06239e-05
0.0102378
0.104593
0.00936846
0.0948353
-1.40284e-08
6.18123e-05
0.0160901
0.137881
-9.45388e-10
9.51395e-05
0.0174451
0.151943
9.30441e-05
0.0185881
0.16364
5.76708e-05
0.0194014
0.172032
-7.47919e-09
0.0198241
0.176417
-5.76861e-05
0.0198241
0.176417
-9.30606e-05
0.0194014
0.172032
-9.51578e-05
0.0185881
0.16364
-6.18319e-05
0.0174451
0.151943
0.0160901
0.137881
-2.11673e-08
0.00016941
0.0215574
0.165444
-1.36953e-09
0.000252723
0.0231689
0.182156
0.000239067
0.0245105
0.195906
0.000143917
0.0254476
0.205696
-1.03502e-08
0.0259303
0.210786
-0.000143938
0.0259303
0.210786
-0.00023909
0.0254476
0.205696
-0.000252747
0.0245105
0.195906
-0.000169435
0.0231689
0.182156
0.0215574
0.165444
-2.68533e-08
0.000298578
0.0248528
0.179197
-1.87225e-09
0.000436542
0.0264707
0.197203
0.00040782
0.0277954
0.211837
0.000242971
0.0287021
0.222167
-1.33939e-08
0.0291644
0.227509
-0.000242998
0.0291644
0.227509
-0.000407848
0.0287021
0.222167
-0.000436571
0.0277954
0.211837
-0.000298607
0.0264707
0.197203
0.0248528
0.179197
-3.14561e-08
0.000436697
0.0257635
0.181383
-2.47783e-09
0.000628381
0.0271966
0.199714
0.000582279
0.0283439
0.214424
0.000344883
0.0291119
0.224716
-1.67334e-08
0.0294987
0.23001
-0.000344917
0.0294987
0.23001
-0.000582313
0.0291119
0.224716
-0.000628415
0.028344
0.214424
-0.000436731
0.0271966
0.199714
0.0257635
0.181383
-3.48833e-08
0.000572148
0.0245416
0.174436
-3.33532e-09
0.000814748
0.0256794
0.192499
0.000751174
0.0265636
0.206821
0.000443388
0.0271412
0.216754
-2.05316e-08
0.0274285
0.221837
-0.000443429
0.0274285
0.221837
-0.000751214
0.0271412
0.216754
-0.000814787
0.0265637
0.206821
-0.000572184
0.0256794
0.192499
0.0245416
0.174436
-3.70381e-08
0.000697636
0.0216896
0.160677
-4.61276e-09
0.000990274
0.0224916
0.178184
0.000910901
0.0230951
0.191917
0.000536596
0.0234809
0.201368
-2.44934e-08
0.0236708
0.206181
-0.000536644
0.0236708
0.206181
-0.000910947
0.0234809
0.201368
-0.000990316
0.0230951
0.191917
-0.000697673
0.0224916
0.178184
0.0216896
0.160677
-3.75822e-08
0.00081949
0.017794
0.142111
-6.45578e-09
0.00116392
0.0182744
0.158989
0.00106777
0.0186331
0.172107
0.000627373
0.0188616
0.181072
-2.81182e-08
0.0189739
0.185618
-0.000627427
0.0189739
0.185618
-0.00106782
0.0188616
0.181072
-0.00116396
0.0186331
0.172107
-0.000819526
0.0182744
0.158989
0.017794
0.142111
-3.59565e-08
0.000972305
0.120341
-8.38137e-09
0.0134016
0.00136417
0.136655
0.0136375
0.00123982
0.14922
0.0138245
0.000723762
0.15775
0.0139503
-3.01182e-08
0.162059
0.0140122
-0.00072382
0.162059
0.0140122
-0.00123987
0.15775
0.0139503
-0.00136421
0.14922
0.0138245
-0.000972337
0.136655
0.0136375
0.120341
-3.1405e-08
0.0134016
4.93701e-06
0.000823352
0.0348095
-2.04556e-10
3.20097e-06
0.000918569
0.038429
2.46479e-06
0.00100229
0.0414774
1.24228e-06
0.00106661
0.0436861
-1.39738e-09
0.00110097
0.0448469
-1.24507e-06
0.00110097
0.0448469
-2.46795e-06
0.00106661
0.0436861
-3.20443e-06
0.00100229
0.0414774
-4.94093e-06
0.00091857
0.038429
0.000823353
0.0348095
-4.39845e-09
2.64233e-05
0.00298104
0.0926512
-4.34699e-10
3.25367e-05
0.00328954
0.102216
2.84193e-05
0.00355648
0.110232
1.64e-05
0.00375435
0.116019
-4.00534e-09
0.00385915
0.119053
-1.64079e-05
0.00385915
0.119053
-2.8428e-05
0.00375435
0.116019
-3.2546e-05
0.00355648
0.110233
-2.64335e-05
0.00328954
0.102216
0.00298104
0.0926512
-1.09856e-08
6.10549e-05
0.00567916
0.135122
-7.55404e-10
8.38493e-05
0.00621293
0.148997
7.56444e-05
0.00666879
0.160536
4.43458e-05
0.00699912
0.168819
-6.24532e-09
0.0071727
0.173147
-4.43584e-05
0.0071727
0.173147
-7.5658e-05
0.00699912
0.168819
-8.38637e-05
0.00666879
0.160536
-6.10704e-05
0.00621293
0.148997
0.00567917
0.135122
-1.65319e-08
0.000108483
0.0081685
0.162847
-1.09815e-09
0.000154454
0.00886048
0.179463
0.000141578
0.00944369
0.193144
8.34699e-05
0.00985835
0.202895
-8.40328e-09
0.0100743
0.207968
-8.34869e-05
0.0100743
0.207968
-0.000141596
0.00985836
0.202895
-0.000154473
0.00944369
0.193144
-0.000108502
0.00886048
0.179463
0.0081685
0.162847
-2.0959e-08
0.000166238
0.00995231
0.177247
-1.53936e-09
0.000238873
0.0107025
0.195288
0.000220246
0.0113253
0.209974
0.000130068
0.01176
0.220355
-1.05829e-08
0.0119842
0.225729
-0.000130089
0.0119842
0.225729
-0.000220268
0.01176
0.220355
-0.000238896
0.0113253
0.209974
-0.000166261
0.0107026
0.195288
0.00995232
0.177247
-2.4485e-08
0.000230709
0.0107965
0.180308
-2.07165e-09
0.000331152
0.0115097
0.198806
0.000305687
0.0120907
0.213684
0.000180524
0.0124886
0.224112
-1.28538e-08
0.0126916
0.229483
-0.00018055
0.0126916
0.229483
-0.000305714
0.0124886
0.224112
-0.000331178
0.0120908
0.213684
-0.000230735
0.0115097
0.198806
0.0107965
0.180308
-2.70538e-08
0.000297491
0.0106859
0.17425
-2.73241e-09
0.00042561
0.0112916
0.192589
0.000392779
0.0117741
0.20717
0.000231848
0.0120981
0.217306
-1.53084e-08
0.0122617
0.222499
-0.000231878
0.0122617
0.222499
-0.000392809
0.0120981
0.217306
-0.000425639
0.0117741
0.20717
-0.000297519
0.0112916
0.192589
0.0106859
0.17425
-2.85653e-08
0.000363022
0.00975803
0.161242
-3.53384e-09
0.000518779
0.010217
0.179103
0.000478556
0.0105742
0.193157
0.000282282
0.01081
0.202852
-1.78078e-08
0.010928
0.207797
-0.000282317
0.010928
0.207797
-0.00047859
0.01081
0.202852
-0.000518811
0.0105742
0.193157
-0.00036305
0.010217
0.179103
0.00975803
0.161242
-2.86959e-08
0.000428448
0.00823684
0.143204
-4.78345e-09
0.000611726
0.00853987
0.160483
0.000562978
0.00877326
0.173957
0.000331417
0.00892622
0.183188
-1.99681e-08
0.00900245
0.187875
-0.000331456
0.00900245
0.187875
-0.000563014
0.00892623
0.183187
-0.000611758
0.00877327
0.173957
-0.000428476
0.00853988
0.160483
0.00823684
0.143204
-2.72536e-08
0.00050201
0.121703
-6.15657e-09
0.00637316
0.000708767
0.138445
0.006543
0.000647858
0.151378
0.00667548
0.00037964
0.160179
0.00676528
-2.09928e-08
0.164631
0.00681014
-0.00037968
0.164631
0.00681014
-0.000647894
0.160179
0.00676528
-0.000708798
0.151378
0.00667549
-0.000502035
0.138445
0.006543
0.121703
-2.41793e-08
0.00637317
-4.98652e-06
0.000387077
0.0344274
-1.49148e-10
-7.49625e-06
0.000425106
0.0380064
-6.37406e-06
0.000457115
0.0410192
-3.6183e-06
0.000481037
0.0432023
-1.17747e-09
0.000493564
0.0443497
3.61583e-06
0.000493564
0.0443497
6.37145e-06
0.000481037
0.0432023
7.49342e-06
0.000457115
0.0410192
4.98351e-06
0.000425106
0.0380064
0.000387078
0.0344274
-3.21253e-09
-4.50057e-06
0.00126042
0.0917824
-4.09288e-10
-7.08768e-06
0.00138384
0.10126
-6.05347e-06
0.00148893
0.1092
-3.32563e-06
0.00156623
0.114931
-3.24727e-09
0.00160693
0.117937
3.31875e-06
0.00160693
0.117937
6.04656e-06
0.00156623
0.114931
7.08017e-06
0.00148893
0.1092
4.49287e-06
0.00138384
0.10126
0.00126042
0.0917824
-7.92101e-09
4.56773e-06
0.00235226
0.134026
-6.26648e-10
6.45978e-06
0.0025743
0.147804
6.45066e-06
0.00276322
0.159262
4.14194e-06
0.00290023
0.167487
-5.13608e-09
0.00297221
0.171786
-4.15246e-06
0.00297221
0.171786
-6.4614e-06
0.00290023
0.167487
-6.47116e-06
0.00276322
0.159262
-4.57933e-06
0.0025743
0.147804
0.00235226
0.134026
-1.20292e-08
2.11896e-05
0.00340865
0.161769
-8.62843e-10
3.12172e-05
0.00371097
0.178316
2.96374e-05
0.0039663
0.191943
1.79325e-05
0.00414896
0.201658
-6.82313e-09
0.0042444
0.206714
-1.79463e-05
0.0042444
0.206714
-2.96516e-05
0.00414897
0.201658
-3.1232e-05
0.0039663
0.191943
-2.12044e-05
0.00371097
0.178316
0.00340865
0.161769
-1.53607e-08
4.43234e-05
0.00422575
0.176385
-1.13667e-09
6.50968e-05
0.00457105
0.194407
6.12353e-05
0.00485921
0.209085
3.66754e-05
0.00506236
0.219466
-8.41525e-09
0.00516773
0.224843
-3.66922e-05
0.00516773
0.224843
-6.12525e-05
0.00506236
0.219466
-6.51144e-05
0.00485921
0.209085
-4.43408e-05
0.00457105
0.194407
0.00422575
0.176385
-1.80669e-08
7.23791e-05
0.0046803
0.179781
-1.45082e-09
0.00010551
0.0050265
0.198318
9.87544e-05
0.00531078
0.21324
5.88735e-05
0.00550802
0.223707
-9.96066e-09
0.00560946
0.2291
-5.88934e-05
0.00560946
0.2291
-9.87744e-05
0.00550802
0.223707
-0.00010553
0.00531078
0.21324
-7.23986e-05
0.00502651
0.198318
0.00468031
0.179781
-2.00747e-08
0.000103456
0.00473165
0.174095
-1.89846e-09
0.000149906
0.00504237
0.192527
0.000139863
0.00529242
0.207198
8.3155e-05
0.00546311
0.217407
-1.15059e-08
0.00555013
0.222641
-8.31779e-05
0.00555013
0.222641
-0.000139885
0.00546311
0.217407
-0.000149927
0.00529243
0.207198
-0.000103476
0.00504237
0.192527
0.00473165
0.174095
-2.13384e-08
0.000136029
0.00440827
0.161429
-2.54745e-09
0.000196656
0.00465822
0.179427
0.000183072
0.00485538
0.193608
0.000108608
0.00498805
0.203402
-1.29362e-08
0.00505514
0.208401
-0.000108634
0.00505514
0.208401
-0.000183096
0.00498805
0.203402
-0.000196679
0.00485539
0.193608
-0.00013605
0.00465823
0.179427
0.00440827
0.161429
-2.16881e-08
0.000170947
0.00378666
0.143655
-3.3403e-09
0.000246363
0.00396457
0.161101
0.000228313
0.00410339
0.174727
0.000134978
0.00419601
0.184073
-1.41586e-08
0.00424258
0.188823
-0.000135006
0.00424259
0.188823
-0.000228339
0.00419601
0.184073
-0.000246387
0.0041034
0.174727
-0.000170968
0.00396458
0.161101
0.00378666
0.143655
-2.09888e-08
0.00021169
0.122309
-3.96974e-09
0.00296932
0.00030107
0.139241
0.00307901
0.000276733
0.152341
0.00316537
0.000162708
0.161265
0.00322422
-1.48912e-08
0.165782
0.00325382
-0.000162737
0.165782
0.00325382
-0.00027676
0.161265
0.00322422
-0.000301093
0.152341
0.00316537
-0.000211709
0.139241
0.00307901
0.122309
-1.90795e-08
0.00296932
5.52534e-07
0.000100583
0.0343263
-1.05154e-10
2.01607e-07
0.000112247
0.0378945
1.49386e-07
0.000122537
0.0408967
6.28228e-08
0.000130621
0.0430717
-1.04385e-09
0.000134971
0.0442148
-6.48437e-08
0.000134971
0.0442148
-1.51456e-07
0.000130622
0.0430717
-2.03654e-07
0.000122537
0.0408967
-5.54702e-07
0.000112247
0.0378945
0.000100583
0.0343263
-2.26761e-09
3.06444e-06
0.000405517
0.0914744
-2.16798e-10
3.47598e-06
0.000449348
0.100922
3.00008e-06
0.000487503
0.108835
1.71882e-06
0.000516241
0.114547
-2.81401e-09
0.000531583
0.117542
-1.72421e-06
0.000531583
0.117542
-3.00567e-06
0.000516241
0.114547
-3.48142e-06
0.000487503
0.108835
-3.06994e-06
0.000449349
0.100922
0.000405518
0.0914744
-5.63058e-09
7.83533e-06
0.000827775
0.133596
-3.60945e-10
1.04942e-05
0.000912224
0.147339
9.43982e-06
0.000985066
0.158765
5.53047e-06
0.00103876
0.166969
-4.21783e-09
0.00106723
0.171256
-5.53881e-06
0.00106723
0.171256
-9.44837e-06
0.00103876
0.166969
-1.05025e-05
0.000985067
0.158765
-7.84374e-06
0.000912225
0.147339
0.000827775
0.133596
-8.60549e-09
1.52468e-05
0.00126311
0.161318
-5.25603e-10
2.15712e-05
0.00138368
0.177838
1.98137e-05
0.00148668
0.191443
1.17053e-05
0.00156139
0.201143
-5.43136e-09
0.00160073
0.206192
-1.17161e-05
0.00160073
0.206192
-1.98247e-05
0.00156139
0.201143
-2.15821e-05
0.00148668
0.191443
-1.52576e-05
0.00138368
0.177838
0.00126312
0.161318
-1.101e-08
2.52874e-05
0.00162371
0.175999
-7.20635e-10
3.64335e-05
0.00176687
0.194013
3.37633e-05
0.00188774
0.208686
2.00121e-05
0.00197409
0.219067
-6.52798e-09
0.00201923
0.224444
-2.00252e-05
0.00201923
0.224444
-3.37764e-05
0.00197409
0.219067
-3.64465e-05
0.00188774
0.208686
-2.53001e-05
0.00176688
0.194013
0.00162371
0.175999
-1.29954e-08
3.76113e-05
0.00184989
0.179517
-9.56501e-10
5.44251e-05
0.00199837
0.198069
5.05997e-05
0.00212189
0.213009
3.00225e-05
0.00220879
0.223493
-7.55e-09
0.00225384
0.228895
-3.00376e-05
0.00225384
0.228895
-5.06147e-05
0.00220879
0.223493
-5.44399e-05
0.00212189
0.213009
-3.76256e-05
0.00199837
0.198069
0.00184989
0.179517
-1.45032e-08
5.15793e-05
0.0019142
0.173979
-1.26368e-09
7.46383e-05
0.00205159
0.19245
6.94569e-05
0.00216385
0.207162
4.1212e-05
0.00224163
0.217403
-8.56262e-09
0.0022816
0.222655
-4.12291e-05
0.0022816
0.222655
-6.94736e-05
0.00224163
0.217403
-7.46545e-05
0.00216385
0.207162
-5.15947e-05
0.00205159
0.19245
0.0019142
0.173979
-1.55e-08
6.65489e-05
0.00181914
0.161458
-1.57618e-09
9.62835e-05
0.001933
0.179515
8.95609e-05
0.00202433
0.193754
5.30955e-05
0.0020867
0.203593
-9.55847e-09
0.00211847
0.208617
-5.31144e-05
0.00211847
0.208617
-8.95793e-05
0.0020867
0.203593
-9.6301e-05
0.00202434
0.193754
-6.65651e-05
0.001933
0.179515
0.00181914
0.161458
-1.58772e-08
8.25273e-05
0.00159073
0.1438
-1.93619e-09
0.000119029
0.00167455
0.161323
0.000110337
0.00174071
0.175019
6.52488e-05
0.00178533
0.184419
-1.04378e-08
0.0018079
0.189199
-6.52693e-05
0.0018079
0.189199
-0.000110357
0.00178533
0.184419
-0.000119047
0.00174071
0.175019
-8.25438e-05
0.00167455
0.161323
0.00159073
0.1438
-1.55635e-08
9.93444e-05
0.122529
-2.32646e-09
0.00127078
0.000141905
0.139549
0.00132394
0.000130875
0.152727
0.00136564
7.71257e-05
0.16171
0.00139419
-1.10069e-08
0.166259
0.00140861
-7.71473e-05
0.166259
0.00140861
-0.000130895
0.16171
0.00139419
-0.000141923
0.152727
0.00136564
-9.93603e-05
0.139549
0.00132394
0.122529
-1.46338e-08
0.00127077
-1.07927e-06
5.80309e-05
0.0342693
-7.51988e-11
-1.57522e-06
6.34991e-05
0.0378315
-1.34241e-06
6.80153e-05
0.0408285
-7.63207e-07
7.1386e-05
0.0429998
-8.18554e-10
7.31412e-05
0.0441409
7.61527e-07
7.3141e-05
0.0441409
1.34076e-06
7.1386e-05
0.0429998
1.57361e-06
6.80153e-05
0.0408285
1.07775e-06
6.34992e-05
0.0378315
5.8031e-05
0.0342693
-1.53193e-09
-1.43439e-06
0.000192957
0.0913409
-1.77501e-10
-2.15875e-06
0.000211897
0.100775
-1.88773e-06
0.000227905
0.108675
-1.0677e-06
0.000239725
0.114378
-2.12879e-09
0.000245953
0.117368
1.0633e-06
0.000245953
0.117368
1.88348e-06
0.000239725
0.114378
2.15454e-06
0.000227905
0.108675
1.43053e-06
0.000211897
0.100775
0.000192957
0.0913409
-3.81001e-09
-2.40008e-07
0.000370582
0.133418
-2.78066e-10
-4.19384e-07
0.000406878
0.147144
-3.02714e-07
0.000437691
0.158555
-1.21411e-07
0.000460199
0.166748
-3.26947e-09
0.000472074
0.17103
1.14813e-07
0.000472074
0.17103
2.96249e-07
0.000460199
0.166748
4.12815e-07
0.000437691
0.158555
2.33633e-07
0.000406878
0.147144
0.000370583
0.133418
-5.9533e-09
2.33409e-06
0.000554647
0.161132
-3.76651e-10
3.43492e-06
0.000607226
0.177637
3.31002e-06
0.000651745
0.191229
2.02912e-06
0.000683921
0.200921
-4.18443e-09
0.000700833
0.205965
-2.03748e-06
0.000700833
0.205965
-3.31833e-06
0.000683921
0.200921
-3.44314e-06
0.000651745
0.191229
-2.34186e-06
0.000607226
0.177637
0.000554647
0.161132
-7.6247e-09
6.27594e-06
0.000710772
0.175837
-4.87395e-10
9.24471e-06
0.000774631
0.193843
8.75036e-06
0.000828261
0.20851
5.26594e-06
0.000866565
0.218888
-4.97169e-09
0.000886584
0.224264
-5.27585e-06
0.000886585
0.224264
-8.76025e-06
0.000866565
0.218888
-9.25445e-06
0.000828262
0.20851
-6.28522e-06
0.000774631
0.193843
0.000710772
0.175837
-9.08001e-09
1.13887e-05
0.000813189
0.179404
-6.06146e-10
1.67042e-05
0.000881187
0.197958
1.57261e-05
0.000937583
0.212901
9.41223e-06
0.000977338
0.223388
-5.67139e-09
0.000997972
0.228793
-9.42352e-06
0.000997973
0.228793
-1.57374e-05
0.000977338
0.223388
-1.67153e-05
0.000937584
0.212901
-1.13992e-05
0.000881188
0.197958
0.000813189
0.179404
-1.02334e-08
1.74128e-05
0.000847816
0.173927
-7.34252e-10
2.54474e-05
0.000912566
0.192411
2.38923e-05
0.000965416
0.207135
1.42603e-05
0.00100216
0.217387
-6.30999e-09
0.00102109
0.222646
-1.42728e-05
0.00102109
0.222646
-2.39047e-05
0.00100216
0.217387
-2.54595e-05
0.000965417
0.207135
-1.74242e-05
0.000912566
0.192411
0.000847816
0.173927
-1.10761e-08
2.41177e-05
0.000812682
0.161469
-9.00971e-10
3.51906e-05
0.000868022
0.179549
3.29602e-05
0.000912465
0.193809
1.96245e-05
0.000942953
0.203666
-6.86578e-09
0.000958533
0.208699
-1.96382e-05
0.000958533
0.208699
-3.29735e-05
0.000942954
0.203666
-3.52034e-05
0.000912466
0.193809
-2.41295e-05
0.000868023
0.179549
0.000812682
0.161469
-1.15528e-08
3.16462e-05
0.000716204
0.143865
-1.13511e-09
4.59339e-05
0.000758404
0.161419
4.27857e-05
0.000791832
0.175143
2.53746e-05
0.000814493
0.184565
-7.36113e-09
0.000825987
0.189356
-2.53891e-05
0.000825987
0.189356
-4.27997e-05
0.000814494
0.184565
-4.5947e-05
0.000791832
0.175143
-3.16581e-05
0.000758404
0.161419
0.000716204
0.143865
-1.15983e-08
4.01334e-05
0.122631
-1.34192e-09
0.000574696
5.75525e-05
0.139687
0.000602601
5.32481e-05
0.152898
0.000624691
3.14368e-05
0.161907
0.000639843
-7.82756e-09
0.166469
0.000647518
-3.14522e-05
0.166469
0.000647518
-5.32625e-05
0.161907
0.000639843
-5.75655e-05
0.152898
0.000624691
-4.01449e-05
0.139687
0.000602601
0.122631
-1.1244e-08
0.000574695
3.39366e-08
1.39204e-05
0.0342554
-4.16906e-11
-4.15267e-08
1.55878e-05
0.037816
-4.31341e-08
1.70952e-05
0.0408114
-2.87668e-08
1.83005e-05
0.0429815
-6.60712e-10
1.89553e-05
0.044122
2.73993e-08
1.89555e-05
0.044122
4.18961e-08
1.83005e-05
0.0429815
4.03927e-08
1.70952e-05
0.0408114
-3.49925e-08
1.55878e-05
0.037816
1.39205e-05
0.0342554
-1.03538e-09
3.27481e-07
6.09076e-05
0.0912936
-7.0974e-11
3.05567e-07
6.77353e-05
0.100722
2.48669e-07
7.37392e-05
0.108618
1.37297e-07
7.83163e-05
0.114318
-1.65496e-09
8.07735e-05
0.117306
-1.40456e-07
8.07736e-05
0.117306
-2.5182e-07
7.83164e-05
0.114318
-3.08482e-07
7.37393e-05
0.108618
-3.30216e-07
6.77355e-05
0.100722
6.09079e-05
0.0912936
-2.59891e-09
1.03446e-06
0.000129526
0.133349
-1.3554e-10
1.32597e-06
0.000143392
0.147068
1.17545e-06
0.000155441
0.158474
6.83795e-07
0.000164422
0.166662
-2.45167e-09
0.000169213
0.170942
-6.88614e-07
0.000169213
0.170942
-1.18022e-06
0.000164422
0.166662
-1.33047e-06
0.000155441
0.158474
-1.0387e-06
0.000143392
0.147068
0.000129526
0.133349
-4.04521e-09
2.24852e-06
0.000204012
0.161055
-1.91508e-10
3.12835e-06
0.000224745
0.177555
2.8578e-06
0.000242593
0.191142
1.68417e-06
0.00025569
0.200831
-3.09975e-09
0.000262632
0.205874
-1.69032e-06
0.000262632
0.205874
-2.86386e-06
0.00025569
0.200831
-3.13414e-06
0.000242593
0.191142
-2.25398e-06
0.000224746
0.177555
0.000204012
0.161055
-5.2348e-09
3.99846e-06
0.000269704
0.175767
-2.39125e-10
5.72222e-06
0.000295437
0.19377
5.29398e-06
0.000317349
0.208436
3.13626e-06
0.000333208
0.218813
-3.63904e-09
0.000341556
0.224188
-3.14352e-06
0.000341556
0.224188
-5.30112e-06
0.000333208
0.218813
-5.72911e-06
0.000317349
0.208436
-4.00496e-06
0.000295438
0.19377
0.000269705
0.175767
-6.26602e-09
6.25265e-06
0.000315271
0.179352
-2.92702e-10
9.03821e-06
0.000343131
0.197907
8.40846e-06
0.000366539
0.212852
4.99235e-06
0.000383246
0.223341
-4.10509e-09
0.000391975
0.228748
-5.00054e-06
0.000391975
0.228748
-8.41653e-06
0.000383246
0.223341
-9.04602e-06
0.000366539
0.212852
-6.26001e-06
0.000343131
0.197907
0.000315273
0.179352
-7.08083e-09
8.91968e-06
0.000334045
0.173899
-3.88136e-10
1.29402e-05
0.000360936
0.192389
1.20675e-05
0.000383168
0.20712
7.16996e-06
0.000398811
0.217377
-4.53897e-09
0.000406918
0.222638
-7.179e-06
0.000406918
0.222638
-1.20763e-05
0.000398812
0.217377
-1.29487e-05
0.000383169
0.20712
-8.92773e-06
0.000360936
0.192389
0.000334046
0.173899
-7.68056e-09
1.18937e-05
0.000324404
0.161466
-5.05422e-10
1.72792e-05
0.000347679
0.179557
1.61159e-05
0.000366588
0.193827
9.56957e-06
0.000379695
0.203692
-4.96356e-09
0.000386425
0.208729
-9.57941e-06
0.000386425
0.208729
-1.61255e-05