/*--------------------------------*- C++ -*----------------------------------*\
| =========                 |                                                 |
| \\      /  F ield         | OpenFOAM: The Open Source CFD Toolbox           |
|  \\    /   O peration     | Version:  2106                                  |
|   \\  /    A nd           | Website:  www.openfoam.com                      |
|    \\/     M anipulation  |                                                 |
\*---------------------------------------------------------------------------*/
FoamFile
{
    version     2.0;
    format      ascii;
    arch        "LSB;label=32;scalar=64";
    class       volVectorField;
    location    "0.11";
    object      U;
}
// * * * * * * * * * * * * * * * * * * * * * * * * * * * * * * * * * * * * * //

dimensions      [0 1 -1 0 0 0 0];

internalField   nonuniform List<vector> 
10000
(
(0.046237 0.05439 0.26317)
(0.0394584 0.0617387 0.274075)
(0.0294991 0.0684154 0.282654)
(0.0183047 0.0730877 0.288567)
(0.00620455 0.0755068 0.291569)
(-0.00620456 0.0755068 0.291569)
(-0.0183047 0.0730877 0.288567)
(-0.0294991 0.0684154 0.282654)
(-0.0394584 0.0617387 0.274075)
(-0.046237 0.05439 0.26317)
(0.122775 0.145594 0.548244)
(0.103511 0.164328 0.562393)
(0.0771802 0.180846 0.572951)
(0.0476974 0.192265 0.580055)
(0.0161363 0.198148 0.583597)
(-0.0161363 0.198148 0.583597)
(-0.0476974 0.192265 0.580055)
(-0.0771802 0.180846 0.572951)
(-0.103511 0.164328 0.562393)
(-0.122775 0.145594 0.548244)
(0.153111 0.181919 0.690003)
(0.127464 0.202333 0.700781)
(0.0942634 0.220238 0.708277)
(0.0578959 0.232413 0.713174)
(0.0195259 0.238629 0.715559)
(-0.019526 0.238629 0.715559)
(-0.0578959 0.232413 0.713174)
(-0.0942634 0.220238 0.708277)
(-0.127464 0.202333 0.700781)
(-0.153111 0.181919 0.690003)
(0.156659 0.186033 0.758608)
(0.128955 0.203721 0.765121)
(0.0945992 0.219349 0.769114)
(0.0577565 0.22979 0.771595)
(0.0194217 0.235068 0.772751)
(-0.0194217 0.235068 0.772751)
(-0.0577565 0.22979 0.771595)
(-0.0945992 0.219349 0.769114)
(-0.128955 0.203721 0.765121)
(-0.15666 0.186033 0.758608)
(0.148625 0.176389 0.789618)
(0.121163 0.190322 0.792636)
(0.0882553 0.202846 0.793909)
(0.0535965 0.211079 0.794565)
(0.0179763 0.215197 0.794813)
(-0.0179763 0.215197 0.794813)
(-0.0535965 0.211079 0.794565)
(-0.0882553 0.202846 0.793909)
(-0.121163 0.190322 0.792636)
(-0.148625 0.176389 0.789618)
(0.1354 0.160606 0.80103)
(0.109419 0.170821 0.801579)
(0.0792002 0.180255 0.801035)
(0.0478635 0.186374 0.800501)
(0.0160161 0.189401 0.800169)
(-0.0160161 0.189401 0.800169)
(-0.0478636 0.186374 0.800501)
(-0.0792002 0.180255 0.801035)
(-0.109419 0.170821 0.801579)
(-0.1354 0.160606 0.80103)
(0.120034 0.142197 0.802534)
(0.0961795 0.149037 0.801518)
(0.0692187 0.155632 0.799911)
(0.0416433 0.159871 0.798699)
(0.0139048 0.161948 0.798047)
(-0.0139048 0.161948 0.798047)
(-0.0416434 0.159871 0.798699)
(-0.0692187 0.155631 0.799911)
(-0.0961796 0.149037 0.801518)
(-0.120034 0.142197 0.802534)
(0.104259 0.123195 0.799452)
(0.0828402 0.127127 0.797563)
(0.0593177 0.13122 0.795449)
(0.0355459 0.133861 0.79393)
(0.0118464 0.135149 0.793142)
(-0.0118465 0.135149 0.793142)
(-0.035546 0.133861 0.79393)
(-0.0593178 0.13122 0.795449)
(-0.0828402 0.127127 0.797563)
(-0.10426 0.123195 0.799452)
(0.0890739 0.104785 0.794667)
(0.0702481 0.106259 0.792361)
(0.0500796 0.108218 0.790107)
(0.029913 0.109551 0.788528)
(0.0099532 0.110214 0.787724)
(-0.0099533 0.110214 0.787724)
(-0.0299131 0.109551 0.788528)
(-0.0500796 0.108218 0.790107)
(-0.0702482 0.106259 0.792361)
(-0.0890739 0.104785 0.794667)
(0.0751809 0.0875418 0.789746)
(0.0590573 0.0862639 0.787253)
(0.0418322 0.0867339 0.785051)
(0.0249039 0.0871592 0.783556)
(0.00827451 0.0873873 0.782802)
(-0.00827465 0.0873873 0.782802)
(-0.0249041 0.0871592 0.783556)
(-0.0418323 0.0867339 0.785051)
(-0.0590574 0.0862638 0.787253)
(-0.075181 0.0875417 0.789746)
(0.00823613 0.0105776 0.229414)
(0.00687571 0.0129964 0.239923)
(0.00519163 0.0149072 0.248542)
(0.00327926 0.0162136 0.254544)
(0.00112165 0.0168924 0.257617)
(-0.00112165 0.0168924 0.257617)
(-0.00327927 0.0162136 0.254544)
(-0.00519163 0.0149072 0.248542)
(-0.00687572 0.0129964 0.239923)
(-0.00823614 0.0105776 0.229414)
(0.0349536 0.0426862 0.530607)
(0.029743 0.0511406 0.548215)
(0.0226461 0.0582561 0.56236)
(0.0142651 0.0632409 0.572072)
(0.00487402 0.065842 0.576994)
(-0.00487403 0.065842 0.576994)
(-0.0142652 0.0632409 0.572072)
(-0.0226461 0.0582561 0.56236)
(-0.0297431 0.0511406 0.548215)
(-0.0349536 0.0426862 0.530607)
(0.0587024 0.0708038 0.723039)
(0.0495448 0.0831266 0.740456)
(0.0374296 0.0935131 0.754107)
(0.0233992 0.100724 0.763327)
(0.00796418 0.104457 0.767946)
(-0.0079642 0.104457 0.767946)
(-0.0233992 0.100724 0.763327)
(-0.0374297 0.0935131 0.754107)
(-0.0495448 0.0831266 0.740456)
(-0.0587024 0.0708038 0.723039)
(0.0754009 0.0903413 0.84185)
(0.0629543 0.104115 0.855801)
(0.0471327 0.115661 0.866384)
(0.0292457 0.123574 0.87338)
(0.00991661 0.127633 0.876831)
(-0.00991664 0.127633 0.876831)
(-0.0292457 0.123574 0.87338)
(-0.0471327 0.115661 0.866384)
(-0.0629544 0.104115 0.855801)
(-0.0754009 0.0903412 0.84185)
(0.0846698 0.100961 0.911099)
(0.0699414 0.114381 0.920536)
(0.0519155 0.12555 0.927348)
(0.0319936 0.133104 0.931699)
(0.0108111 0.136944 0.933794)
(-0.0108112 0.136944 0.933794)
(-0.0319936 0.133104 0.931699)
(-0.0519155 0.12555 0.927348)
(-0.0699415 0.114381 0.920536)
(-0.0846698 0.100961 0.911099)
(0.0878273 0.104298 0.947593)
(0.0718071 0.11625 0.95267)
(0.052876 0.126108 0.95598)
(0.0323816 0.132693 0.957932)
(0.010908 0.136009 0.958813)
(-0.0109081 0.136009 0.958813)
(-0.0323816 0.132693 0.957932)
(-0.052876 0.126108 0.95598)
(-0.0718072 0.11625 0.95267)
(-0.0878274 0.104298 0.947593)
(0.0863917 0.102191 0.963219)
(0.0699294 0.112072 0.964691)
(0.0511141 0.12012 0.965213)
(0.0311245 0.125435 0.965297)
(0.0104548 0.12809 0.965248)
(-0.0104548 0.12809 0.965248)
(-0.0311246 0.125435 0.965297)
(-0.0511141 0.12012 0.965213)
(-0.0699295 0.112072 0.964691)
(-0.0863917 0.102191 0.963219)
(0.0817067 0.0962448 0.966272)
(0.0654923 0.103785 0.965094)
(0.0475533 0.10981 0.963657)
(0.0288125 0.113758 0.962463)
(0.00965439 0.11572 0.961788)
(-0.00965449 0.11572 0.961788)
(-0.0288126 0.113758 0.962463)
(-0.0475534 0.10981 0.963657)
(-0.0654924 0.103785 0.965094)
(-0.0817068 0.0962447 0.966272)
(0.0748458 0.0876757 0.962406)
(0.0594834 0.0927838 0.959478)
(0.0429432 0.0967648 0.956828)
(0.0259135 0.0993928 0.954871)
(0.00866534 0.100704 0.953833)
(-0.00866546 0.100704 0.953833)
(-0.0259136 0.0993928 0.954871)
(-0.0429433 0.0967648 0.956828)
(-0.0594835 0.0927838 0.959478)
(-0.0748459 0.0876757 0.962406)
(0.0668278 0.0776495 0.955456)
(0.0528579 0.079635 0.951407)
(0.0379106 0.0817937 0.948115)
(0.0227885 0.0832755 0.945788)
(0.00760717 0.084024 0.944584)
(-0.00760731 0.084024 0.944584)
(-0.0227886 0.0832755 0.945788)
(-0.0379107 0.0817937 0.948115)
(-0.052858 0.079635 0.951407)
(-0.0668278 0.0776495 0.955456)
(0.000503309 0.00049058 0.157574)
(0.000589501 0.000635205 0.165694)
(0.000485329 0.000862087 0.172477)
(0.000333451 0.00104242 0.177282)
(0.000117979 0.001145 0.179768)
(-0.000117982 0.001145 0.179768)
(-0.000333454 0.00104242 0.177282)
(-0.000485335 0.000862085 0.172477)
(-0.000589508 0.000635201 0.165694)
(-0.000503318 0.000490574 0.157574)
(0.00922019 0.0105869 0.414477)
(0.00841398 0.0128425 0.431781)
(0.00662654 0.0150617 0.446006)
(0.00426747 0.0167169 0.455977)
(0.00147285 0.0176098 0.461099)
(-0.00147286 0.0176098 0.461099)
(-0.00426748 0.0167169 0.455977)
(-0.00662656 0.0150617 0.446006)
(-0.008414 0.0128424 0.431781)
(-0.00922021 0.0105869 0.414477)
(0.0200133 0.0232148 0.611157)
(0.0177641 0.0276192 0.631787)
(0.0138049 0.0317506 0.648433)
(0.00878739 0.0347734 0.659964)
(0.0030163 0.0363832 0.665841)
(-0.00301632 0.0363832 0.665841)
(-0.0087874 0.0347734 0.659964)
(-0.0138049 0.0317506 0.648433)
(-0.0177641 0.0276192 0.631787)
(-0.0200133 0.0232147 0.611158)
(0.0305767 0.0356285 0.754469)
(0.0266391 0.041638 0.774307)
(0.0204693 0.0471297 0.789962)
(0.0129137 0.0510798 0.800656)
(0.0044135 0.0531612 0.806058)
(-0.00441352 0.0531612 0.806058)
(-0.0129138 0.0510798 0.800656)
(-0.0204693 0.0471297 0.789962)
(-0.0266391 0.041638 0.774307)
(-0.0305768 0.0356285 0.754469)
(0.0388289 0.0453025 0.85394)
(0.0333261 0.0520481 0.870642)
(0.0253557 0.058109 0.883467)
(0.0158764 0.062405 0.892076)
(0.00540605 0.0646473 0.896378)
(-0.00540608 0.0646473 0.896378)
(-0.0158764 0.062405 0.892076)
(-0.0253557 0.058109 0.883467)
(-0.0333261 0.0520481 0.870642)
(-0.0388289 0.0453024 0.85394)
(0.0441364 0.0514518 0.919461)
(0.0373928 0.0581286 0.932063)
(0.0281995 0.064052 0.941408)
(0.0175401 0.0681994 0.947543)
(0.00595313 0.0703458 0.950564)
(-0.00595317 0.0703458 0.950564)
(-0.0175401 0.0681994 0.947543)
(-0.0281995 0.0640519 0.941408)
(-0.0373928 0.0581286 0.932063)
(-0.0441365 0.0514518 0.919461)
(0.0466186 0.0542205 0.959913)
(0.0390338 0.0602215 0.96841)
(0.0292029 0.0654831 0.974415)
(0.0180566 0.0691314 0.97823)
(0.00611055 0.0710062 0.980068)
(-0.0061106 0.0710062 0.980068)
(-0.0180566 0.0691314 0.97823)
(-0.029203 0.0654831 0.974415)
(-0.0390339 0.0602215 0.96841)
(-0.0466186 0.0542205 0.959913)
(0.0466846 0.0541023 0.982751)
(0.0386628 0.0590169 0.98769)
(0.0287173 0.0632684 0.990913)
(0.0176626 0.0661987 0.992838)
(0.00596167 0.0676976 0.993724)
(-0.00596175 0.0676976 0.993724)
(-0.0176627 0.0661987 0.992838)
(-0.0287174 0.0632684 0.990913)
(-0.0386629 0.0590169 0.987689)
(-0.0466847 0.0541023 0.982751)
(0.0448466 0.051686 0.99385)
(0.0367787 0.0552621 0.996017)
(0.0271333 0.0583031 0.997166)
(0.0166081 0.0604041 0.997711)
(0.00559214 0.0614792 0.99791)
(-0.00559223 0.0614792 0.99791)
(-0.0166082 0.0604041 0.99771)
(-0.0271333 0.0583031 0.997166)
(-0.0367788 0.0552621 0.996017)
(-0.0448467 0.051686 0.99385)
(0.0417382 0.0477479 0.997648)
(0.0339379 0.049486 0.997848)
(0.0248183 0.0512825 0.997602)
(0.0151091 0.0525395 0.997237)
(0.00507448 0.0531835 0.996992)
(-0.00507459 0.0531835 0.996992)
(-0.0151092 0.0525395 0.997237)
(-0.0248184 0.0512825 0.997602)
(-0.0339379 0.049486 0.997848)
(-0.0417383 0.0477479 0.997648)
(0.000481056 0.000651987 0.15048)
(0.000365711 0.000814492 0.157851)
(0.000245831 0.000922883 0.163889)
(0.000147793 0.000983703 0.168143)
(4.9077e-05 0.00101274 0.170338)
(-4.90793e-05 0.00101274 0.170338)
(-0.000147797 0.000983702 0.168143)
(-0.000245835 0.000922881 0.163889)
(-0.000365716 0.000814489 0.157851)
(-0.000481063 0.000651982 0.15048)
(0.00341475 0.00418141 0.399833)
(0.00290706 0.0051304 0.41628)
(0.00219984 0.00592282 0.429612)
(0.00138833 0.00647288 0.43893)
(0.000474713 0.0067607 0.443713)
(-0.000474718 0.0067607 0.443713)
(-0.00138834 0.00647288 0.43893)
(-0.00219985 0.00592281 0.429612)
(-0.00290707 0.00513039 0.41628)
(-0.00341476 0.0041814 0.399833)
(0.00769241 0.00925335 0.596482)
(0.00660173 0.0111751 0.617021)
(0.005039 0.0128198 0.63343)
(0.00318077 0.0139803 0.644785)
(0.00108785 0.0145889 0.650578)
(-0.00108786 0.0145889 0.650578)
(-0.00318078 0.0139803 0.644785)
(-0.00503902 0.0128198 0.63343)
(-0.00660175 0.0111751 0.617021)
(-0.00769243 0.00925333 0.596482)
(0.0123713 0.0147748 0.745658)
(0.0105847 0.0175747 0.766452)
(0.00806669 0.0199824 0.782765)
(0.00507407 0.0216798 0.793917)
(0.00173234 0.022567 0.799562)
(-0.00173236 0.022567 0.799562)
(-0.0050741 0.0216798 0.793917)
(-0.00806671 0.0199824 0.782765)
(-0.0105847 0.0175747 0.766452)
(-0.0123713 0.0147747 0.745658)
(0.016592 0.0197243 0.854447)
(0.0140975 0.0231059 0.873037)
(0.0106903 0.0260045 0.887294)
(0.00669206 0.0280351 0.896898)
(0.00227924 0.0290904 0.901713)
(-0.00227926 0.0290904 0.901713)
(-0.00669209 0.0280351 0.896898)
(-0.0106903 0.0260045 0.887294)
(-0.0140975 0.0231059 0.873037)
(-0.0165921 0.0197243 0.854447)
(0.019883 0.0235434 0.930688)
(0.0167484 0.0271491 0.945817)
(0.0126201 0.0302162 0.957106)
(0.00785845 0.0323472 0.964575)
(0.00266945 0.0334475 0.968278)
(-0.00266948 0.0334475 0.968278)
(-0.00785849 0.0323472 0.964575)
(-0.0126201 0.0302162 0.957106)
(-0.0167485 0.0271491 0.945817)
(-0.0198831 0.0235434 0.930688)
(0.022044 0.0260001 0.981807)
(0.0183943 0.0294927 0.993149)
(0.0137663 0.0324294 1.00134)
(0.00852676 0.0344526 1.00663)
(0.00288882 0.035491 1.00922)
(-0.00288886 0.035491 1.00922)
(-0.00852681 0.0344526 1.00663)
(-0.0137664 0.0324294 1.00134)
(-0.0183943 0.0294927 0.993149)
(-0.022044 0.0260001 0.981807)
(0.0230431 0.0270573 1.01437)
(0.0190416 0.0301521 1.02221)
(0.014156 0.0327142 1.02764)
(0.00872414 0.0344679 1.03105)
(0.00294829 0.0353637 1.03268)
(-0.00294835 0.0353637 1.03268)
(-0.00872419 0.0344679 1.03105)
(-0.014156 0.0327142 1.02764)
(-0.0190417 0.0301521 1.02221)
(-0.0230432 0.0270573 1.01437)
(0.0229635 0.0267879 1.03378)
(0.0188066 0.0292616 1.03873)
(0.0138929 0.0312703 1.04198)
(0.0085222 0.0326457 1.04394)
(0.00287323 0.0333475 1.04484)
(-0.00287329 0.0333475 1.04484)
(-0.00852226 0.0326457 1.04394)
(-0.0138929 0.0312703 1.04198)
(-0.0188067 0.0292616 1.03873)
(-0.0229636 0.0267879 1.03378)
(0.0220286 0.0254733 1.04421)
(0.0179065 0.0269425 1.04709)
(0.0131227 0.0282907 1.04882)
(0.00800951 0.0292215 1.04975)
(0.00269373 0.0296965 1.05015)
(-0.00269379 0.0296965 1.05015)
(-0.00800956 0.0292215 1.04975)
(-0.0131228 0.0282908 1.04882)
(-0.0179066 0.0269425 1.04709)
(-0.0220287 0.0254733 1.04421)
(3.53292e-05 2.22843e-05 0.144766)
(4.80197e-05 3.36028e-05 0.151947)
(3.98149e-05 5.60195e-05 0.15784)
(2.84976e-05 7.42818e-05 0.162)
(1.01539e-05 8.49049e-05 0.164149)
(-1.01571e-05 8.49047e-05 0.164149)
(-2.85004e-05 7.42812e-05 0.162)
(-3.98183e-05 5.60183e-05 0.15784)
(-4.80241e-05 3.36005e-05 0.151947)
(-3.53346e-05 2.228e-05 0.144766)
(0.000943062 0.0010644 0.386838)
(0.000873464 0.00131836 0.403066)
(0.000693473 0.00157353 0.416255)
(0.000450878 0.00176702 0.425501)
(0.000156225 0.00187273 0.430254)
(-0.000156232 0.00187273 0.430254)
(-0.000450885 0.00176702 0.425501)
(-0.000693481 0.00157353 0.416255)
(-0.000873474 0.00131836 0.403066)
(-0.000943075 0.00106439 0.386838)
(0.00249075 0.00286835 0.580037)
(0.00224312 0.0034926 0.60061)
(0.00176489 0.00408535 0.617114)
(0.00113522 0.0045281 0.628582)
(0.000391635 0.00476706 0.634445)
(-0.000391646 0.00476706 0.634445)
(-0.00113523 0.0045281 0.628582)
(-0.0017649 0.00408535 0.617114)
(-0.00224314 0.00349259 0.60061)
(-0.00249077 0.00286834 0.580037)
(0.00440494 0.00510813 0.729088)
(0.00390435 0.00612475 0.750339)
(0.00304716 0.00706609 0.767116)
(0.00194568 0.00776044 0.778651)
(0.000668995 0.00813196 0.784509)
(-0.000669009 0.00813196 0.784509)
(-0.00194569 0.00776044 0.778651)
(-0.00304718 0.00706609 0.767116)
(-0.00390437 0.00612474 0.750339)
(-0.00440496 0.00510812 0.729088)
(0.00632264 0.00734716 0.8402)
(0.00553398 0.00867501 0.859705)
(0.00428527 0.00988491 0.874809)
(0.00271888 0.0107674 0.885063)
(0.000932022 0.0112361 0.890231)
(-0.00093204 0.0112361 0.890231)
(-0.0027189 0.0107674 0.885063)
(-0.00428529 0.00988491 0.874809)
(-0.00553401 0.008675 0.859705)
(-0.00632267 0.00734714 0.8402)
(0.0079866 0.00927597 0.9203)
(0.0069113 0.0107794 0.936734)
(0.0053108 0.0121314 0.949178)
(0.00334956 0.0131077 0.957508)
(0.00114491 0.0136226 0.96167)
(-0.00114493 0.0136226 0.96167)
(-0.00334959 0.0131077 0.957508)
(-0.00531082 0.0121314 0.949178)
(-0.00691134 0.0107794 0.936734)
(-0.00798663 0.00927596 0.9203)
(0.00924064 0.0107085 0.976031)
(0.0079105 0.0122358 0.988948)
(0.00603326 0.0135917 0.99849)
(0.0037838 0.0145622 1.00478)
(0.00128974 0.0150709 1.00789)
(-0.00128977 0.0150709 1.00789)
(-0.00378383 0.0145622 1.00478)
(-0.00603329 0.0135917 0.99849)
(-0.00791053 0.0122358 0.988948)
(-0.00924068 0.0107085 0.976031)
(0.0100095 0.0115544 1.01337)
(0.0084797 0.0129619 1.02292)
(0.00642105 0.0141934 1.0298)
(0.00400545 0.0150688 1.03425)
(0.00136165 0.0155254 1.03642)
(-0.00136168 0.0155254 1.03642)
(-0.00400549 0.0150688 1.03425)
(-0.00642109 0.0141934 1.0298)
(-0.00847974 0.0129619 1.02292)
(-0.0100096 0.0115544 1.01337)
(0.0102895 0.0118018 1.03729)
(0.00863161 0.0129684 1.044)
(0.00648865 0.0139689 1.0487)
(0.0040259 0.0146774 1.05168)
(0.00136483 0.0150454 1.05311)
(-0.00136487 0.0150455 1.05311)
(-0.00402594 0.0146774 1.05168)
(-0.00648869 0.0139689 1.0487)
(-0.00863165 0.0129684 1.044)
(-0.0102895 0.0118018 1.03729)
(0.0101537 0.0115651 1.05166)
(0.00842925 0.0123084 1.05633)
(0.00627357 0.0129971 1.05947)
(0.00386757 0.0134825 1.06138)
(0.00130697 0.0137333 1.06227)
(-0.00130701 0.0137333 1.06227)
(-0.0038676 0.0134825 1.06138)
(-0.0062736 0.0129971 1.05947)
(-0.00842928 0.0123084 1.05633)
(-0.0101537 0.0115651 1.05166)
(5.61462e-05 7.70376e-05 0.143947)
(4.04832e-05 9.66025e-05 0.151047)
(2.49176e-05 0.000108312 0.156849)
(1.42187e-05 0.000113817 0.16094)
(4.5505e-06 0.000116149 0.163052)
(-4.55295e-06 0.000116149 0.163052)
(-1.42214e-05 0.000113816 0.16094)
(-2.49207e-05 0.00010831 0.156849)
(-4.04865e-05 9.66005e-05 0.151047)
(-5.61501e-05 7.70345e-05 0.143947)
(0.000445253 0.000546092 0.384594)
(0.000375315 0.000672562 0.400671)
(0.000280331 0.000775508 0.413694)
(0.000175715 0.000845682 0.422813)
(5.98352e-05 0.000882133 0.4275)
(-5.984e-05 0.000882133 0.4275)
(-0.00017572 0.00084568 0.422813)
(-0.000280338 0.000775505 0.413694)
(-0.000375322 0.000672556 0.400671)
(-0.000445262 0.000546086 0.384594)
(0.00110194 0.00132502 0.577057)
(0.000946678 0.00161346 0.597524)
(0.000722049 0.00185903 0.613896)
(0.000455974 0.00203261 0.625264)
(0.000155951 0.0021239 0.631075)
(-0.000155959 0.0021239 0.631075)
(-0.000455983 0.00203261 0.625264)
(-0.000722059 0.00185902 0.613896)
(-0.00094669 0.00161345 0.597524)
(-0.00110195 0.00132501 0.577057)
(0.00192366 0.00229512 0.726273)
(0.00165755 0.00276261 0.74756)
(0.00126984 0.00316658 0.76433)
(0.000802138 0.00345455 0.775855)
(0.000274435 0.0036062 0.781709)
(-0.000274446 0.00360619 0.781709)
(-0.000802151 0.00345455 0.775855)
(-0.00126986 0.00316658 0.76433)
(-0.00165756 0.0027626 0.74756)
(-0.00192367 0.00229511 0.726273)
(0.00278282 0.0033044 0.838398)
(0.00239087 0.00392753 0.858136)
(0.00182916 0.00446764 0.873402)
(0.0011527 0.00485241 0.883769)
(0.000393929 0.00505451 0.888996)
(-0.000393944 0.00505451 0.888996)
(-0.00115272 0.00485241 0.883769)
(-0.00182918 0.00446763 0.873402)
(-0.00239088 0.00392752 0.858136)
(-0.00278284 0.00330439 0.838398)
(0.00357424 0.0042274 0.920175)
(0.0030529 0.00495503 0.937048)
(0.00232638 0.00558369 0.949829)
(0.00146069 0.00602961 0.958396)
(0.000498286 0.00626286 0.96268)
(-0.000498304 0.00626286 0.96268)
(-0.0014607 0.00602961 0.958396)
(-0.0023264 0.00558369 0.949829)
(-0.00305293 0.00495502 0.937048)
(-0.00357427 0.00422739 0.920175)
(0.00421853 0.0049696 0.97802)
(0.00357621 0.00573582 0.991559)
(0.00271086 0.00639282 1.00159)
(0.00169486 0.0068562 1.00822)
(0.000576946 0.0070975 1.0115)
(-0.000576968 0.0070975 1.0115)
(-0.00169488 0.0068562 1.00822)
(-0.00271089 0.00639282 1.00159)
(-0.00357623 0.00573582 0.991559)
(-0.00421856 0.00496959 0.97802)
(0.00466236 0.00546621 1.01769)
(0.00391943 0.00620089 1.028)
(0.00295403 0.00682391 1.03548)
(0.00183868 0.00726107 1.04035)
(0.000624501 0.00748778 1.04274)
(-0.000624526 0.00748778 1.04274)
(-0.00183871 0.00726107 1.04035)
(-0.00295406 0.00682391 1.03548)
(-0.00391946 0.00620088 1.028)
(-0.00466239 0.00546621 1.01769)
(0.0048817 0.0056812 1.04394)
(0.00406993 0.00631821 1.05151)
(0.00304892 0.00685002 1.0569)
(0.00188893 0.00722254 1.06035)
(0.000640025 0.00741511 1.06202)
(-0.000640052 0.00741511 1.06202)
(-0.00188896 0.00722254 1.06035)
(-0.00304894 0.00685002 1.0569)
(-0.00406995 0.00631822 1.05151)
(-0.00488172 0.0056812 1.04394)
(0.00489215 0.00564288 1.06047)
(0.00404396 0.00607632 1.06609)
(0.0030033 0.00646683 1.06996)
(0.00185042 0.00673993 1.07237)
(0.000625194 0.00688059 1.07352)
(-0.000625219 0.0068806 1.07352)
(-0.00185045 0.00673993 1.07237)
(-0.00300332 0.00646684 1.06996)
(-0.00404398 0.00607633 1.06609)
(-0.00489217 0.00564288 1.06047)
(3.71651e-06 1.72785e-06 0.143182)
(5.21649e-06 3.01855e-06 0.150257)
(4.12597e-06 5.68153e-06 0.156041)
(3.00862e-06 7.80211e-06 0.16012)
(1.06667e-06 9.04316e-06 0.162226)
(-1.06895e-06 9.04298e-06 0.162226)
(-3.011e-06 7.80158e-06 0.16012)
(-4.12851e-06 5.68065e-06 0.156041)
(-5.21899e-06 3.01717e-06 0.150257)
(-3.71932e-06 1.72577e-06 0.143182)
(0.000135531 0.000153318 0.382714)
(0.000124351 0.000190629 0.398748)
(9.80248e-05 0.00022728 0.41174)
(6.35707e-05 0.000254901 0.420841)
(2.19876e-05 0.000269976 0.425519)
(-2.19925e-05 0.000269975 0.425519)
(-6.35758e-05 0.0002549 0.420841)
(-9.803e-05 0.000227278 0.41174)
(-0.000124356 0.000190625 0.398748)
(-0.000135536 0.000153314 0.382714)
(0.000380967 0.000439377 0.57449)
(0.000342132 0.00053863 0.594931)
(0.000268921 0.000631702 0.611291)
(0.00017305 0.0007013 0.622656)
(5.97071e-05 0.000738933 0.628467)
(-5.97148e-05 0.000738932 0.628467)
(-0.000173058 0.000701298 0.622656)
(-0.000268929 0.000631698 0.611291)
(-0.00034214 0.000538625 0.594931)
(-0.000380976 0.000439371 0.57449)
(0.000709394 0.000823112 0.723455)
(0.00062977 0.00099617 0.744768)
(0.000492837 0.00115553 0.761573)
(0.000315536 0.00127379 0.773132)
(0.000108643 0.00133735 0.779005)
(-0.000108653 0.00133735 0.779005)
(-0.000315547 0.00127379 0.773132)
(-0.000492848 0.00115552 0.761573)
(-0.000629781 0.000996164 0.744768)
(-0.000709405 0.000823105 0.723455)
(0.0010691 0.0012422 0.835728)
(0.000940245 0.00148351 0.855568)
(0.000731959 0.00170323 0.870934)
(0.00046646 0.00186509 0.881384)
(0.000160267 0.00195161 0.886657)
(-0.000160279 0.00195161 0.886657)
(-0.000466472 0.00186509 0.881384)
(-0.000731972 0.00170323 0.870934)
(-0.000940258 0.00148351 0.855568)
(-0.00106912 0.00124219 0.835728)
(0.0014144 0.00164169 0.917981)
(0.00123285 0.00193263 0.93504)
(0.000954195 0.00219498 0.947994)
(0.000605249 0.00238685 0.956694)
(0.000207488 0.00248887 0.961051)
(-0.000207502 0.00248887 0.961051)
(-0.000605263 0.00238685 0.956694)
(-0.00095421 0.00219497 0.947994)
(-0.00123287 0.00193262 0.93504)
(-0.00141441 0.00164168 0.917981)
(0.00170863 0.00197782 0.976543)
(0.00147602 0.00229169 0.990348)
(0.0011354 0.00257185 1.00062)
(0.00071677 0.00277534 1.00742)
(0.000245145 0.00288299 1.01081)
(-0.00024516 0.00288299 1.01081)
(-0.000716786 0.00277534 1.00742)
(-0.00113542 0.00257184 1.00062)
(-0.00147603 0.00229169 0.990348)
(-0.00170865 0.00197782 0.976543)
(0.00192541 0.00221882 1.01707)
(0.00164833 0.00252559 1.02772)
(0.00125996 0.00279613 1.03549)
(0.000791556 0.00299139 1.04057)
(0.000270061 0.00309419 1.04307)
(-0.000270078 0.00309419 1.04307)
(-0.000791574 0.00299139 1.04057)
(-0.00125998 0.00279613 1.03549)
(-0.00164834 0.00252559 1.02772)
(-0.00192543 0.00221881 1.01707)
(0.00205164 0.00234725 1.04425)
(0.00174056 0.00261796 1.0522)
(0.00132128 0.00285204 1.05791)
(0.000825664 0.00302005 1.0616)
(0.000280921 0.00310803 1.0634)
(-0.00028094 0.00310803 1.0634)
(-0.000825682 0.00302005 1.0616)
(-0.0013213 0.00285204 1.05791)
(-0.00174057 0.00261796 1.0522)
(-0.00205166 0.00234725 1.04425)
(0.00209043 0.00237647 1.06166)
(0.00175426 0.00256653 1.06771)
(0.00131796 0.00273884 1.07194)
(0.000818066 0.00286118 1.0746)
(0.000277371 0.00292475 1.07587)
(-0.00027739 0.00292475 1.07587)
(-0.000818084 0.00286118 1.0746)
(-0.00131797 0.00273884 1.07194)
(-0.00175427 0.00256653 1.06771)
(-0.00209044 0.00237647 1.06166)
(8.23322e-06 1.14986e-05 0.143048)
(5.69087e-06 1.4458e-05 0.150111)
(3.2879e-06 1.6098e-05 0.155881)
(1.80115e-06 1.67738e-05 0.15995)
(5.58252e-07 1.70291e-05 0.162051)
(-5.60128e-07 1.7029e-05 0.162051)
(-1.8031e-06 1.67735e-05 0.15995)
(-3.28991e-06 1.60974e-05 0.155881)
(-5.69282e-06 1.4457e-05 0.150111)
(-8.23521e-06 1.14971e-05 0.143048)
(7.13015e-05 8.75984e-05 0.382322)
(5.97248e-05 0.000107973 0.39833)
(4.43242e-05 0.000124272 0.411294)
(2.76771e-05 0.000135278 0.420374)
(9.40206e-06 0.00014097 0.425041)
(-9.4059e-06 0.00014097 0.425041)
(-2.76811e-05 0.000135277 0.420374)
(-4.43284e-05 0.00012427 0.411294)
(-5.97288e-05 0.000107971 0.39833)
(-7.13054e-05 8.75952e-05 0.382322)
(0.000182568 0.000219518 0.57393)
(0.000156648 0.000267997 0.594348)
(0.000119327 0.000308983 0.610681)
(7.5311e-05 0.000337949 0.622026)
(2.5746e-05 0.000353188 0.627826)
(-2.57518e-05 0.000353188 0.627826)
(-7.53171e-05 0.000337948 0.622026)
(-0.000119333 0.000308981 0.610681)
(-0.000156654 0.000267994 0.594348)
(-0.000182574 0.000219512 0.57393)
(0.000328547 0.000391701 0.722864)
(0.000283569 0.000473583 0.744173)
(0.00021756 0.000544225 0.760968)
(0.000137606 0.000594797 0.772519)
(4.71071e-05 0.000621505 0.778388)
(-4.71143e-05 0.000621504 0.778388)
(-0.000137613 0.000594796 0.772519)
(-0.000217569 0.000544222 0.760968)
(-0.000283578 0.000473578 0.744173)
(-0.000328556 0.000391694 0.722864)
(0.000489848 0.000581006 0.835254)
(0.000422498 0.000694782 0.855124)
(0.00032436 0.000793619 0.87051)
(0.000204958 0.000864555 0.880973)
(7.01387e-05 0.00090199 0.886252)
(-7.01467e-05 0.00090199 0.886252)
(-0.000204966 0.000864553 0.880973)
(-0.000324369 0.000793617 0.87051)
(-0.000422509 0.000694777 0.855124)
(-0.000489858 0.000580998 0.835254)
(0.000648139 0.000765523 0.917764)
(0.000556786 0.000903972 0.934894)
(0.000426426 0.00102423 0.947902)
(0.000268768 0.00111037 0.956641)
(9.18634e-05 0.00115572 0.961019)
(-9.18723e-05 0.00115572 0.961019)
(-0.000268777 0.00111037 0.956641)
(-0.000426437 0.00102423 0.947902)
(-0.000556798 0.000903966 0.934894)
(-0.000648151 0.000765515 0.917764)
(0.000787172 0.000925833 0.976696)
(0.000672163 0.0010776 0.990614)
(0.000512714 0.00120879 1.00097)
(0.000322053 0.00130242 1.00785)
(0.00010989 0.00135153 1.01126)
(-0.0001099 0.00135153 1.01126)
(-0.000322063 0.00130242 1.00785)
(-0.000512725 0.00120879 1.00097)
(-0.000672176 0.00107759 0.990614)
(-0.000787185 0.000925826 0.976696)
(0.000893736 0.00104583 1.01768)
(0.000757711 0.0011972 1.02848)
(0.00057516 0.00132698 1.03637)
(0.000359871 0.0014192 1.04154)
(0.00012255 0.00146739 1.04409)
(-0.000122561 0.00146739 1.04409)
(-0.000359882 0.0014192 1.04154)
(-0.000575171 0.00132698 1.03637)
(-0.000757724 0.00119719 1.02848)
(-0.00089375 0.00104583 1.01768)
(0.000959554 0.00111403 1.04534)
(0.000807386 0.00125079 1.05348)
(0.000609421 0.00136639 1.05934)
(0.000379595 0.00144832 1.06314)
(0.000128964 0.00149095 1.06499)
(-0.000128977 0.00149095 1.06499)
(-0.000379608 0.00144831 1.06314)
(-0.000609433 0.00136638 1.05934)
(-0.000807396 0.00125078 1.05348)
(-0.000959566 0.00111402 1.04534)
(0.000983868 0.0011326 1.06323)
(0.000820515 0.00123143 1.06951)
(0.000613821 0.00131999 1.07391)
(0.000380156 0.00138237 1.07669)
(0.000128762 0.00141466 1.07803)
(-0.000128778 0.00141466 1.07803)
(-0.000380171 0.00138237 1.07669)
(-0.000613834 0.00131999 1.07391)
(-0.000820525 0.00123143 1.06951)
(-0.000983876 0.0011326 1.06323)
(6.69507e-07 5.20202e-07 0.142926)
(7.50243e-07 8.13805e-07 0.149984)
(5.18918e-07 1.23112e-06 0.155751)
(3.66929e-07 1.52806e-06 0.159819)
(1.25728e-07 1.6978e-06 0.161918)
(-1.27229e-07 1.69771e-06 0.161918)
(-3.68411e-07 1.52777e-06 0.159819)
(-5.20395e-07 1.23056e-06 0.155751)
(-7.51502e-07 8.13109e-07 0.149984)
(-6.70797e-07 5.19192e-07 0.142926)
(2.33996e-05 2.68679e-05 0.382013)
(2.1062e-05 3.34816e-05 0.398013)
(1.64099e-05 3.97178e-05 0.410971)
(1.05732e-05 4.43368e-05 0.420047)
(3.64394e-06 4.68409e-05 0.424712)
(-3.64693e-06 4.68406e-05 0.424712)
(-1.05762e-05 4.43361e-05 0.420047)
(-1.64129e-05 3.97164e-05 0.410971)
(-2.10646e-05 3.34798e-05 0.398013)
(-2.34023e-05 2.68658e-05 0.382013)
(6.67092e-05 7.74072e-05 0.573498)
(5.94038e-05 9.5182e-05 0.593908)
(4.64641e-05 0.000111512 0.610237)
(2.98209e-05 0.000123642 0.621579)
(1.02746e-05 0.000130182 0.627379)
(-1.02791e-05 0.000130182 0.627379)
(-2.98254e-05 0.00012364 0.621579)
(-4.64686e-05 0.00011151 0.610237)
(-5.94078e-05 9.51794e-05 0.593908)
(-6.67135e-05 7.7404e-05 0.573498)
(0.000126173 0.000146817 0.722374)
(0.000111581 0.000178427 0.743684)
(8.71708e-05 0.000207185 0.760481)
(5.57754e-05 0.000228493 0.772035)
(1.91977e-05 0.000239941 0.777906)
(-1.92033e-05 0.00023994 0.777906)
(-5.57811e-05 0.000228492 0.772035)
(-8.71766e-05 0.000207183 0.760481)
(-0.000111586 0.000178424 0.743684)
(-0.000126178 0.000146814 0.722374)
(0.000193518 0.000225124 0.834773)
(0.000170017 0.000270279 0.854656)
(0.000132404 0.000311098 0.870055)
(8.44396e-05 0.000341215 0.880529)
(2.90228e-05 0.000357335 0.885816)
(-2.90293e-05 0.000357335 0.885816)
(-8.44461e-05 0.000341214 0.880529)
(-0.00013241 0.000311095 0.870055)
(-0.000170023 0.000270275 0.854656)
(-0.000193524 0.00022512 0.834773)
(0.000260803 0.000302781 0.917352)
(0.000227554 0.000358682 0.934511)
(0.000176456 0.000408887 0.947547)
(0.000112124 0.000445748 0.956307)
(3.84723e-05 0.000465399 0.960697)
(-3.84798e-05 0.000465399 0.960697)
(-0.000112131 0.000445746 0.956307)
(-0.000176463 0.000408884 0.947547)
(-0.00022756 0.000358679 0.934511)
(-0.00026081 0.000302778 0.917352)
(0.000320984 0.000371379 0.976404)
(0.000277995 0.000433366 0.990368)
(0.000214496 0.000488601 1.00077)
(0.000135754 0.000528941 1.00767)
(4.64894e-05 0.000550359 1.01111)
(-4.64978e-05 0.000550358 1.01111)
(-0.000135763 0.000528939 1.00767)
(-0.000214504 0.000488599 1.00077)
(-0.000278002 0.000433362 0.990368)
(-0.000320991 0.000371377 0.976404)
(0.000368312 0.000423998 1.01754)
(0.000316505 0.000486325 1.0284)
(0.000242873 0.000541304 1.03635)
(0.000153051 0.000581223 1.04156)
(5.22977e-05 0.000602324 1.04413)
(-5.23067e-05 0.000602324 1.04413)
(-0.00015306 0.000581222 1.04156)
(-0.000242882 0.000541302 1.03635)
(-0.000316512 0.000486323 1.0284)
(-0.00036832 0.000423994 1.01754)
(0.000399268 0.000456064 1.04538)
(0.000340269 0.000512795 1.05359)
(0.000259434 0.00056187 1.05952)
(0.000162651 0.000597288 1.06337)
(5.54312e-05 0.000615897 1.06525)
(-5.54401e-05 0.000615897 1.06525)
(-0.000162661 0.000597288 1.06337)
(-0.000259444 0.00056187 1.05952)
(-0.000340279 0.000512792 1.05359)
(-0.000399277 0.000456062 1.04538)
(0.000413219 0.000469368 1.06345)
(0.000348363 0.000510923 1.06982)