/*--------------------------------*- C++ -*----------------------------------*\
| =========                 |                                                 |
| \\      /  F ield         | OpenFOAM: The Open Source CFD Toolbox           |
|  \\    /   O peration     | Version:  2106                                  |
|   \\  /    A nd           | Website:  www.openfoam.com                      |
|    \\/     M anipulation  |                                                 |
\*---------------------------------------------------------------------------*/
FoamFile
{
    version     2.0;
    format      ascii;
    arch        "LSB;label=32;scalar=64";
    class       surfaceScalarField;
    location    "0.58";
    object      phi;
}
// * * * * * * * * * * * * * * * * * * * * * * * * * * * * * * * * * * * * * //

dimensions      [0 3 -1 0 0 0 0];

oriented        oriented;

internalField   nonuniform List<scalar> 
29100
(
0.00118938
0.151444
0.0815243
-3.87409e-10
0.00146361
0.156354
0.0895902
0.00125599
0.159795
0.0963281
0.00071529
0.162087
0.101151
-2.29855e-09
0.163238
0.103662
-0.000715295
0.163238
0.103662
-0.00125599
0.162087
0.101151
-0.00146362
0.159795
0.0963281
-0.00118938
0.156354
0.0895902
0.151444
0.0815243
-5.47568e-09
0.00238087
0.209653
0.156617
-7.498e-10
0.00330712
0.214263
0.170242
0.00294964
0.21735
0.181382
0.00170632
0.219276
0.18926
-6.41114e-09
0.22022
0.193331
-0.00170633
0.22022
0.193331
-0.00294965
0.219276
0.18926
-0.00330713
0.21735
0.181382
-0.00238089
0.214263
0.170242
0.209653
0.156617
-1.4103e-08
0.00303655
0.220812
0.186058
-1.10136e-09
0.0042949
0.223746
0.201193
0.00385525
0.225655
0.213376
0.00223288
0.226695
0.221915
-1.03735e-08
0.227178
0.226304
-0.0022329
0.227178
0.226304
-0.00385527
0.226695
0.221915
-0.00429492
0.225655
0.213376
-0.00303657
0.223746
0.201193
0.220812
0.186058
-2.13436e-08
0.00346719
0.207441
0.193206
-1.3822e-09
0.00483714
0.208691
0.208478
0.00433282
0.209448
0.220617
0.00250498
0.209679
0.229065
-1.44903e-08
0.209745
0.233388
-0.00250501
0.209745
0.233388
-0.00433285
0.209679
0.229065
-0.00483717
0.209448
0.220617
-0.00346722
0.208691
0.208478
0.207441
0.193206
-2.77589e-08
0.00369665
0.182304
0.18779
-1.68218e-09
0.00508741
0.182259
0.202692
0.00454457
0.182142
0.214418
0.00262394
0.181798
0.22253
-1.902e-08
0.181574
0.226668
-0.00262398
0.181574
0.226668
-0.00454461
0.181798
0.22253
-0.00508745
0.182142
0.214418
-0.00369668
0.182259
0.202692
0.182304
0.18779
-3.37133e-08
0.00378045
0.152739
0.175183
-2.02513e-09
0.00515128
0.151835
0.189562
0.00459198
0.151149
0.200784
0.00264977
0.150469
0.208507
-2.41821e-08
0.150083
0.212436
-0.00264982
0.150083
0.212436
-0.00459203
0.150469
0.208507
-0.00515133
0.151149
0.200784
-0.0037805
0.151835
0.189562
0.152739
0.175183
-3.93709e-08
0.00378664
0.122856
0.158542
-2.47138e-09
0.00512332
0.12147
0.172397
0.00456002
0.120469
0.183139
0.00263113
0.119645
0.190496
-3.01264e-08
0.1192
0.194231
-0.00263119
0.1192
0.194231
-0.00456008
0.119645
0.190496
-0.00512337
0.120469
0.183139
-0.00378668
0.12147
0.172397
0.122856
0.158542
-4.48381e-08
0.00375005
0.0948868
0.139713
-3.00919e-09
0.00506624
0.0932792
0.1531
0.00450899
0.0921629
0.163422
0.00260284
0.0913425
0.170459
-3.68531e-08
0.0909182
0.174023
-0.00260292
0.0909182
0.174023
-0.00450906
0.0913425
0.170459
-0.00506631
0.0921629
0.163422
-0.00375011
0.0932791
0.1531
0.0948867
0.139713
-5.00271e-08
0.00371601
0.0699511
0.119761
-3.33291e-09
0.00504504
0.0682891
0.132745
0.00449154
0.0672312
0.142707
0.00259196
0.066531
0.14947
-4.41719e-08
0.0661843
0.152887
-0.00259205
0.0661843
0.152887
-0.00449162
0.066531
0.14947
-0.00504511
0.0672312
0.142707
-0.00371608
0.0682891
0.132745
0.0699511
0.119761
-5.49328e-08
0.00393567
0.0992945
-3.47826e-09
0.0483106
0.00523329
0.111936
0.0469975
0.00460235
0.121585
0.0461624
0.00263584
0.128107
0.0456566
-5.13806e-08
0.131394
0.0454086
-0.00263594
0.131394
0.0454086
-0.00460244
0.128107
0.0456566
-0.00523337
0.121585
0.0461623
-0.00393573
0.111936
0.0469975
0.0992944
-5.79898e-08
0.0483106
-0.000242141
0.0367584
0.0450081
-5.0113e-10
-0.000244201
0.0399521
0.0496402
-0.000171672
0.0426509
0.0536046
-8.54995e-05
0.0445808
0.0564839
-3.75998e-09
0.0455791
0.0579978
8.54919e-05
0.0455791
0.0579978
0.000171664
0.0445808
0.0564839
0.000244193
0.0426509
0.0536046
0.000242133
0.0399521
0.0496402
0.0367584
0.0450081
-8.46657e-09
6.45413e-05
0.0811615
0.112149
-9.87938e-10
0.000253863
0.0869816
0.123023
0.000303576
0.0918216
0.132161
0.000203404
0.0952126
0.138729
-1.15776e-08
0.0969544
0.142159
-0.000203427
0.0969544
0.142159
-0.000303599
0.0952126
0.138729
-0.000253887
0.0918216
0.132161
-6.45645e-05
0.0869816
0.123023
0.0811615
0.112149
-2.33197e-08
0.00061691
0.112787
0.153816
-1.52381e-09
0.00103711
0.119523
0.168232
0.00101482
0.125052
0.180168
0.000620232
0.12885
0.188673
-1.95849e-08
0.130786
0.193093
-0.000620271
0.130786
0.193093
-0.00101486
0.12885
0.188673
-0.00103715
0.125052
0.180168
-0.000616948
0.119523
0.168232
0.112787
0.153816
-3.68144e-08
0.00123854
0.129303
0.175452
-2.05317e-09
0.00188423
0.135711
0.191645
0.00177293
0.140903
0.204877
0.00105885
0.144395
0.214234
-2.79767e-08
0.146158
0.219075
-0.00105891
0.146158
0.219075
-0.00177299
0.144395
0.214234
-0.00188428
0.140903
0.204877
-0.00123859
0.135711
0.191645
0.129303
0.175452
-4.88299e-08
0.00184578
0.132474
0.182773
-2.65465e-09
0.00268826
0.137863
0.199698
0.00248427
0.142159
0.213365
0.00146744
0.14498
0.222961
-3.69808e-08
0.146387
0.227906
-0.00146751
0.146387
0.227906
-0.00248435
0.14498
0.222961
-0.00268833
0.142159
0.213365
-0.00184584
0.137863
0.199698
0.132474
0.182773
-5.95373e-08
0.00239442
0.125364
0.179898
-3.40499e-09
0.00340243
0.129464
0.196953
0.00311159
0.132656
0.210578
0.00182655
0.13469
0.220082
-4.6736e-08
0.135689
0.224961
-0.00182664
0.135689
0.224961
-0.00311168
0.13469
0.220082
-0.00340251
0.132656
0.210578
-0.0023945
0.129464
0.196953
0.125364
0.179898
-6.8992e-08
0.00286133
0.111226
0.169818
-4.51932e-09
0.00401045
0.114035
0.186676
0.00364652
0.116141
0.200017
0.00213329
0.117435
0.209265
-5.7226e-08
0.118058
0.213996
-0.0021334
0.118058
0.213996
-0.00364663
0.117435
0.209265
-0.00401055
0.116141
0.200017
-0.00286142
0.114035
0.186676
0.111226
0.169818
-7.7213e-08
0.0032408
0.0929963
0.154702
-6.08319e-09
0.00452227
0.0946479
0.171206
0.00410311
0.0958248
0.184157
0.00239668
0.0965182
0.193082
-6.80728e-08
0.0968457
0.197632
-0.00239681
0.0968458
0.197632
-0.00410323
0.0965183
0.193082
-0.00452239
0.0958248
0.184157
-0.0032409
0.0946479
0.171206
0.0929963
0.154702
-8.39905e-08
0.00356895
0.0730838
0.136105
-7.75959e-09
0.00498767
0.0737743
0.1522
0.00451966
0.0742677
0.164732
0.00263583
0.0745541
0.173318
-7.85698e-08
0.0746891
0.177679
-0.00263598
0.0746891
0.177679
-0.0045198
0.0745541
0.173318
-0.00498779
0.0742677
0.164732
-0.00356905
0.0737743
0.1522
0.0730838
0.136105
-8.97547e-08
0.00399468
0.115133
-8.98276e-09
0.0532508
0.00553254
0.13083
0.0533422
0.00497401
0.142946
0.0534654
0.00288461
0.151196
0.053554
-8.69e-08
0.155373
0.0535949
-0.00288478
0.155373
0.0535949
-0.00497416
0.151196
0.053554
-0.00553268
0.142946
0.0534654
-0.00399479
0.13083
0.0533422
0.115133
-9.179e-08
0.0532508
3.96302e-05
0.0100332
0.0349353
-5.14428e-10
3.55769e-05
0.0110709
0.0385733
2.99358e-05
0.0119517
0.0416585
1.65778e-05
0.0126057
0.0438915
-4.01933e-09
0.0129502
0.0450642
-1.65858e-05
0.0129502
0.0450642
-2.9944e-05
0.0126057
0.0438915
-3.55853e-05
0.0119517
0.0416585
-3.96389e-05
0.0110709
0.0385733
0.0100332
0.0349353
-8.90642e-09
0.00028281
0.0304096
0.0914899
-1.10718e-09
0.000383943
0.0331272
0.100865
0.000343045
0.0354015
0.108752
0.00020007
0.0370417
0.114435
-1.27459e-08
0.0378985
0.117411
-0.000200096
0.0378985
0.117411
-0.00034307
0.0370417
0.114435
-0.000383968
0.0354015
0.108752
-0.000282835
0.0331272
0.100865
0.0304096
0.0914899
-2.51548e-08
0.000603308
0.0513646
0.132258
-1.74707e-09
0.00085583
0.055374
0.145732
0.000775193
0.0586848
0.156965
0.000454307
0.0610192
0.165016
-2.191e-08
0.0622284
0.169217
-0.000454351
0.0622284
0.169217
-0.000775236
0.0610192
0.165016
-0.000855873
0.0586848
0.156965
-0.000603349
0.055374
0.145732
0.0513646
0.132258
-3.99669e-08
0.0009712
0.0671817
0.158663
-2.42843e-09
0.00139346
0.0717618
0.174835
0.00127249
0.0754977
0.188185
0.000747223
0.0780804
0.197698
-3.16095e-08
0.0794059
0.202645
-0.000747286
0.0794059
0.202645
-0.00127255
0.0780804
0.197698
-0.00139351
0.0754977
0.188185
-0.000971256
0.0717618
0.174835
0.0671818
0.158663
-5.31998e-08
0.00136124
0.0758694
0.172724
-3.20321e-09
0.00194933
0.0803588
0.190513
0.00178456
0.083972
0.205056
0.00104819
0.0864216
0.215356
-4.18699e-08
0.0876663
0.220694
-0.00104827
0.0876663
0.220694
-0.00178464
0.0864216
0.215356
-0.0019494
0.083972
0.205056
-0.00136131
0.0803589
0.190513
0.0758695
0.172724
-6.48077e-08
0.00175298
0.0774584
0.176556
-4.16475e-09
0.00249329
0.0813905
0.195181
0.00228152
0.0845004
0.210262
0.00133934
0.0865661
0.22088
-5.26709e-08
0.087604
0.226363
-0.00133944
0.087604
0.226363
-0.00228162
0.0865661
0.22088
-0.00249338
0.0845004
0.210262
-0.00175306
0.0813905
0.195181
0.0774584
0.176556
-7.46684e-08
0.0021231
0.0730369
0.172117
-5.56296e-09
0.00300117
0.0761514
0.191037
0.00274352
0.0785573
0.206218
0.00160962
0.0801216
0.216843
-6.37888e-08
0.0808986
0.222311
-0.00160975
0.0808986
0.222311
-0.00274364
0.0801216
0.216843
-0.00300128
0.0785573
0.206218
-0.00212319
0.0761514
0.191037
0.073037
0.172117
-8.26342e-08
0.00245554
0.0641701
0.161113
-7.46203e-09
0.0034631
0.0663731
0.179977
0.00316417
0.0680317
0.194982
0.00185555
0.0690903
0.205422
-7.45848e-08
0.0696113
0.210775
-0.0018557
0.0696113
0.210775
-0.00316431
0.0690903
0.205422
-0.00346322
0.0680317
0.194982
-0.00245564
0.0663731
0.179977
0.0641701
0.161113
-8.83352e-08
0.00276297
0.0525279
0.144984
-9.47993e-09
0.00389527
0.0538568
0.163584
0.00355351
0.0548515
0.178254
0.00208097
0.0554839
0.188397
-8.41021e-08
0.0557948
0.193577
-0.00208113
0.0557948
0.193577
-0.00355366
0.055484
0.188397
-0.0038954
0.0548515
0.178254
-0.00276307
0.0538568
0.163584
0.0525279
0.144984
-9.22243e-08
0.00310476
0.124917
-1.08685e-08
0.0396385
0.00434252
0.143173
0.0402763
0.00393887
0.157413
0.0407875
0.00229722
0.167191
0.0411308
-9.033e-08
0.172165
0.0413002
-0.0022974
0.172165
0.0413002
-0.00393902
0.167191
0.0411308
-0.00434265
0.157413
0.0407876
-0.00310487
0.143173
0.0402763
0.124917
-9.10639e-08
0.0396385
-3.18405e-05
0.00408461
0.0308825
-4.59226e-10
-4.54711e-05
0.00449782
0.0340891
-3.6694e-05
0.00484853
0.0368012
-2.02396e-05
0.00510928
0.0387658
-3.60112e-09
0.00524588
0.0397981
2.02324e-05
0.00524588
0.0397981
3.66867e-05
0.00510928
0.0387658
4.54634e-05
0.00484854
0.0368012
3.18325e-05
0.00449782
0.0340891
0.00408461
0.0308825
-7.95258e-09
9.67123e-06
0.012673
0.0828918
-1.0423e-09
1.67639e-05
0.013886
0.09147
2.11761e-05
0.0149139
0.0986826
1.51767e-05
0.0156631
0.103888
-1.16246e-08
0.016056
0.106616
-1.52e-05
0.016056
0.106616
-2.11993e-05
0.0156632
0.103888
-1.67864e-05
0.0149139
0.0986826
-9.6927e-06
0.013886
0.09147
0.012673
0.0828918
-2.25117e-08
0.000122927
0.0225436
0.122264
-1.71921e-09
0.000186371
0.0245555
0.134999
0.000178961
0.0262492
0.145638
0.00010903
0.0274648
0.153284
-2.01962e-08
0.0280995
0.157283
-0.00010907
0.0280995
0.157283
-0.000179001
0.0274648
0.153284
-0.00018641
0.0262492
0.145638
-0.000122965
0.0245555
0.134999
0.0225436
0.122264
-3.63589e-08
0.000293263
0.0312352
0.149679
-2.47338e-09
0.000437163
0.0337942
0.165452
0.000412054
0.0359275
0.178532
0.000247035
0.037436
0.187892
-2.92836e-08
0.0382186
0.192773
-0.000247093
0.0382186
0.192773
-0.000412111
0.037436
0.187892
-0.000437218
0.0359275
0.178532
-0.000293314
0.0337942
0.165452
0.0312352
0.149679
-4.85957e-08
0.0005049
0.0372289
0.166225
-3.3498e-09
0.000741938
0.0399931
0.184077
0.000693878
0.0422677
0.198763
0.000413291
0.0438516
0.209221
-3.87976e-08
0.0446671
0.214658
-0.000413367
0.0446671
0.214658
-0.000693952
0.0438516
0.209221
-0.000742007
0.0422678
0.198763
-0.000504963
0.0399931
0.184077
0.0372289
0.166225
-5.91763e-08
0.000741732
0.0398794
0.173164
-4.43246e-09
0.00107656
0.0425281
0.192311
0.00100138
0.0446705
0.207934
0.000594144
0.0461379
0.219001
-4.86087e-08
0.0468868
0.224737
-0.000594239
0.0468868
0.224737
-0.00100147
0.0461379
0.219001
-0.00107664
0.0446705
0.207934
-0.000741805
0.0425281
0.192311
0.0398794
0.173164
-6.79485e-08
0.00098645
0.0392125
0.171797
-5.9212e-09
0.0014193
0.0415023
0.19163
0.00131529
0.0433138
0.207679
0.000778442
0.0445335
0.218985
-5.84111e-08
0.0451503
0.224826
-0.000778556
0.0451504
0.224826
-0.0013154
0.0445335
0.218985
-0.0014194
0.0433138
0.207678
-0.000986533
0.0415023
0.19163
0.0392125
0.171797
-7.47272e-08
0.0012261
0.0357123
0.163387
-7.87549e-09
0.00175691
0.0374939
0.183454
0.00162401
0.0388703
0.199558
0.000959264
0.0397825
0.210838
-6.75418e-08
0.0402401
0.216645
-0.000959395
0.0402401
0.216645
-0.00162413
0.0397825
0.210838
-0.00175702
0.0388703
0.199558
-0.00122619
0.0374939
0.183454
0.0357123
0.163387
-7.91567e-08
0.00146492
0.0301252
0.149107
-1.00406e-08
0.00209202
0.0313487
0.169102
0.00192632
0.0322791
0.185011
0.00113462
0.0328902
0.196081
-7.50906e-08
0.0331953
0.201756
-0.00113477
0.0331953
0.201756
-0.00192645
0.0328902
0.196081
-0.00209213
0.0322791
0.185011
-0.00146501
0.0313487
0.169102
0.0301252
0.149106
-8.17241e-08
0.00171841
0.130019
-1.16108e-08
0.0233053
0.00243584
0.149794
0.02401
0.00222995
0.165334
0.0245646
0.00130784
0.176066
0.0249379
-7.9245e-08
0.181544
0.0251244
-0.00130799
0.181544
0.0251244
-0.00223009
0.176066
0.0249379
-0.00243596
0.165334
0.0245647
-0.00171851
0.149794
0.02401
0.130019
-7.95439e-08
0.0233053
2.15504e-06
0.00132496
0.0295554
-4.16176e-10
-2.36458e-07
0.00147135
0.0326201
1.26705e-07
0.00159877
0.0352021
1.317e-07
0.00169605
0.0370698
-2.9739e-09
0.00174794
0.0380503
-1.37675e-07
0.00174794
0.0380503
-1.32777e-07
0.00169605
0.0370698
2.3019e-07
0.00159877
0.0352021
-2.16135e-06
0.00147135
0.0326201
0.00132496
0.0295554
-6.61216e-09
3.073e-05
0.00475543
0.0794306
-1.00765e-09
3.9614e-05
0.00524869
0.0876838
3.64143e-05
0.00567267
0.0946119
2.15751e-05
0.00598766
0.0996109
-9.66786e-09
0.00615456
0.102231
-2.15944e-05
0.00615456
0.102231
-3.64336e-05
0.00598766
0.0996108
-3.96334e-05
0.00567267
0.0946119
-3.0749e-05
0.00524869
0.0876838
0.00475544
0.0794306
-1.8994e-08
8.55191e-05
0.00917303
0.117761
-1.66401e-09
0.000121048
0.0100678
0.130145
0.000111632
0.01083
0.14049
6.62249e-05
0.011386
0.147931
-1.68627e-08
0.0116791
0.151825
-6.62585e-05
0.0116791
0.151825
-0.000111666
0.011386
0.147931
-0.000121081
0.01083
0.14049
-8.55501e-05
0.0100678
0.130145
0.00917304
0.117761
-3.04476e-08
0.00016627
0.0134737
0.145212
-2.38781e-09
0.000241229
0.0146994
0.160746
0.000223921
0.0157335
0.173646
0.000132936
0.0164765
0.182892
-2.44778e-08
0.0168656
0.187719
-0.000132985
0.0168656
0.187719
-0.000223968
0.0164765
0.182892
-0.000241274
0.0157335
0.173646
-0.000166312
0.0146994
0.160746
0.0134737
0.145212
-4.06647e-08
0.000270008
0.0168297
0.162599
-3.22009e-09
0.000393313
0.0182422
0.180411
0.000365895
0.0194198
0.195105
0.000217189
0.0202538
0.205592
-3.23929e-08
0.0206873
0.211054
-0.000217253
0.0206873
0.211054
-0.000365957
0.0202538
0.205592
-0.000393371
0.0194198
0.195105
-0.00027006
0.0182422
0.180411
0.0168297
0.162599
-4.9508e-08
0.000391358
0.0187483
0.170854
-4.22416e-09
0.000568314
0.0201819
0.190194
0.000528549
0.0213593
0.206034
0.000313506
0.0221806
0.217289
-4.04415e-08
0.0226042
0.223134
-0.000313585
0.0226042
0.223134
-0.000528624
0.0221807
0.217289
-0.000568384
0.0213593
0.206034
-0.000391419
0.020182
0.190194
0.0187483
0.170854
-5.67783e-08
0.000522873
0.0190592
0.170963
-5.55358e-09
0.000756049
0.0203656
0.191213
0.000702359
0.0214183
0.207673
0.000416199
0.0221414
0.21931
-4.83259e-08
0.0225112
0.225335
-0.000416294
0.0225112
0.225335
-0.000702448
0.0221415
0.21931
-0.000756129
0.0214184
0.207673
-0.000522942
0.0203656
0.191213
0.0190592
0.170963
-6.22896e-08
0.000657863
0.0178601
0.163929
-7.24151e-09
0.000948502
0.0189305
0.184599
0.000879671
0.0197757
0.20127
0.000520551
0.0203474
0.212991
-5.54802e-08
0.0206372
0.219039
-0.00052066
0.0206372
0.219039
-0.000879772
0.0203474
0.212991
-0.000948591
0.0197757
0.20127
-0.000657937
0.0189306
0.184598
0.0178601
0.163929
-6.57381e-08
0.000796342
0.0154414
0.150729
-9.0795e-09
0.00114289
0.0162214
0.171465
0.00105581
0.0168254
0.188048
0.000623147
0.0172288
0.199632
-6.11696e-08
0.0174319
0.205585
-0.000623266
0.0174319
0.205585
-0.00105592
0.0172288
0.199632
-0.00114298
0.0168254
0.188048
-0.000796418
0.0162214
0.171465
0.0154414
0.150729
-6.75035e-08
0.00093362
0.132309
-1.03844e-08
0.012218
0.00133199
0.152919
0.0126979
0.00122577
0.16919
0.0130748
0.000721284
0.180469
0.0133304
-6.40036e-08
0.186238
0.0134591
-0.000721409
0.186238
0.0134591
-0.00122588
0.180469
0.0133304
-0.00133208
0.16919
0.0130748
-0.000933695
0.152919
0.0126979
0.132308
-6.53432e-08
0.012218
-5.58113e-06
0.000573632
0.0289873
-3.33776e-10
-8.32392e-06
0.000631009
0.0319919
-6.62276e-06
0.000679597
0.0345208
-3.65708e-06
0.000716512
0.0363503
-2.36014e-09
0.000735918
0.0373107
3.65241e-06
0.000735918
0.0373107
6.61792e-06
0.000716513
0.0363503
8.31908e-06
0.000679598
0.0345208
5.57602e-06
0.00063101
0.0319919
0.000573633
0.0289873
-5.18642e-09
-1.11647e-06
0.00199727
0.0780081
-8.4788e-10
-2.32356e-06
0.00220015
0.0861159
-1.03068e-06
0.00237306
0.0929172
-7.8369e-08
0.00250164
0.0978248
-7.66841e-09
0.00256977
0.100397
6.2637e-08
0.00256977
0.100397
1.01546e-06
0.00250165
0.0978248
2.30759e-06
0.00237306
0.0929172
1.10156e-06
0.00220015
0.0861159
0.00199727
0.0780081
-1.48665e-08
1.70144e-05
0.003883
0.115858
-1.42817e-09
2.51173e-05
0.00426988
0.128067
2.46313e-05
0.00459969
0.138264
1.52263e-05
0.00484169
0.145601
-1.32747e-08
0.00496959
0.14944
-1.52526e-05
0.00496959
0.14944
-2.46575e-05
0.00484169
0.145601
-2.51426e-05
0.00459969
0.138264
-1.70386e-05
0.00426988
0.128067
0.00388301
0.115858
-2.38789e-08
4.94299e-05
0.00581666
0.143229
-2.06445e-09
7.35158e-05
0.0063731
0.158618
6.99539e-05
0.00684492
0.171404
4.22237e-05
0.00718688
0.180575
-1.92226e-08
0.00736676
0.185364
-4.22618e-05
0.00736677
0.185364
-6.99911e-05
0.00718689
0.180575
-7.35513e-05
0.00684493
0.171404
-4.94631e-05
0.00637311
0.158618
0.00581667
0.143229
-3.19671e-08
9.49062e-05
0.00743263
0.160888
-2.78525e-09
0.000140494
0.00810402
0.178634
0.000132622
0.00866792
0.193289
7.94873e-05
0.00907147
0.203761
-2.53793e-08
0.00928246
0.209218
-7.95374e-05
0.00928246
0.209218
-0.000132671
0.00907148
0.203761
-0.00014054
0.00866793
0.193289
-9.49474e-05
0.00810403
0.178634
0.00743264
0.160888
-3.89871e-08
0.000151319
0.00847073
0.169665
-3.63197e-09
0.000222469
0.00918218
0.189045
0.000209082
0.00977173
0.204944
0.000124867
0.0101879
0.216257
-3.15737e-08
0.010404
0.222137
-0.000124929
0.010404
0.222137
-0.000209141
0.0101879
0.216257
-0.000222523
0.00977174
0.204944
-0.000151367
0.0091822
0.189045
0.00847075
0.169665
-4.47787e-08
0.000215476
0.00879825
0.17042
-4.70212e-09
0.00031491
0.0094736
0.190822
0.000295032
0.0100236
0.207441
0.00017577
0.0104063
0.219211
-3.75623e-08
0.0106034
0.225311
-0.000175843
0.0106034
0.225311
-0.000295101
0.0104063
0.219211
-0.000314972
0.0100236
0.207441
-0.00021553
0.00947362
0.190822
0.00879827
0.17042
-4.92004e-08
0.000284399
0.0084071
0.164035
-6.01152e-09
0.000413954
0.0089834
0.184959
0.000386617
0.00944377
0.201877
0.000229775
0.00975937
0.213795
-4.29246e-08
0.00992051
0.219952
-0.000229859
0.00992052
0.219952
-0.000386695
0.00975938
0.213795
-0.000414023
0.00944379
0.201877
-0.000284456
0.00898341
0.184959
0.00840711
0.164035
-5.20286e-08
0.000358279
0.00739307
0.151385
-7.43251e-09
0.000517996
0.00783214
0.172456
0.00048114
0.00817572
0.189353
0.000284933
0.00840786
0.20118
-4.71353e-08
0.00852545
0.207265
-0.000285025
0.00852545
0.207265
-0.000481225
0.00840787
0.20118
-0.000518069
0.00817573
0.189353
-0.000358339
0.00783215
0.172456
0.00739308
0.151385
-5.35339e-08
0.000432722
0.133336
-8.46685e-09
0.00593331
0.000621848
0.154345
0.00621727
0.000575332
0.170971
0.00644143
0.000339647
0.182518
0.00659435
-4.92403e-08
0.188432
0.0066717
-0.000339742
0.188432
0.0066717
-0.000575419
0.182518
0.00659436
-0.000621922
0.170971
0.00644144
-0.000432781
0.154345
0.00621728
0.133335
-5.21912e-08
0.00593332
-8.16885e-07
0.000183034
0.0288051
-2.47743e-10
-1.60613e-06
0.000202776
0.0317899
-1.17994e-06
0.000219989
0.0343004
-6.34778e-07
0.000233515
0.0361162
-1.78778e-09
0.000240735
0.0370693
6.31191e-07
0.000240735
0.0370693
1.17632e-06
0.000233515
0.0361162
1.60239e-06
0.00021999
0.0343004
8.13038e-07
0.000202777
0.0317899
0.000183034
0.0288051
-3.79293e-09
1.74553e-06
0.000716787
0.0774726
-6.56539e-10
1.7963e-06
0.000793804
0.0855248
1.9397e-06
0.000860585
0.0922764
1.26987e-06
0.000911143
0.0971478
-5.76852e-09
0.000938139
0.099701
-1.28137e-06
0.00093814
0.099701
-1.95116e-06
0.000911144
0.0971478
-1.80747e-06
0.000860587
0.0922764
-1.75631e-06
0.000793806
0.0855248
0.00071679
0.0774726
-1.09419e-08
9.56366e-06
0.00147559
0.11509
-1.12568e-09
1.33554e-05
0.00163089
0.127226
1.26526e-05
0.00176486
0.13736
7.65585e-06
0.00186448
0.144652
-1.00349e-08
0.00191749
0.148468
-7.67581e-06
0.00191749
0.148468
-1.26722e-05
0.00186448
0.144652
-1.33745e-05
0.00176486
0.13736
-9.5818e-06
0.00163089
0.127226
0.00147559
0.11509
-1.77478e-08
2.32803e-05
0.00229585
0.142385
-1.63887e-09
3.38401e-05
0.00252901
0.15771
3.18384e-05
0.00272878
0.170442
1.9088e-05
0.00287532
0.179577
-1.45096e-08
0.00295291
0.184348
-1.91168e-05
0.00295291
0.184348
-3.18664e-05
0.00287532
0.179577
-3.38669e-05
0.00272879
0.170442
-2.33051e-05
0.00252901
0.15771
0.00229586
0.142385
-2.39218e-08
4.29648e-05
0.00302129
0.16012
-2.20964e-09
6.30163e-05
0.00331313
0.17783
5.92214e-05
0.00356082
0.192461
3.54025e-05
0.00374018
0.20292
-1.90972e-08
0.00383458
0.208372
-3.54402e-05
0.00383458
0.208372
-5.92577e-05
0.00374019
0.20292
-6.30503e-05
0.00356083
0.192461
-4.29957e-05
0.00331314
0.17783
0.0030213
0.16012
-2.93338e-08
6.80693e-05
0.00352854
0.169089
-2.85826e-09
9.98362e-05
0.00384805
0.188478
9.37225e-05
0.00411576
0.204395
5.59348e-05
0.00430705
0.215728
-2.36771e-08
0.00440701
0.221621
-5.59814e-05
0.00440701
0.221621
-9.37668e-05
0.00430705
0.215728
-9.98771e-05
0.00411577
0.204395
-6.81055e-05
0.00384806
0.188478
0.00352855
0.169089
-3.38638e-08
9.74359e-05
0.00374261
0.170109
-3.64283e-09
0.000142561
0.00405503
0.19057
0.00013364
0.00431258
0.207253
7.96416e-05
0.00449399
0.219078
-2.80752e-08
0.00458804
0.22521
-7.96967e-05
0.00458804
0.22521
-0.000133692
0.004494
0.219078
-0.000142608
0.00431259
0.207253
-9.74765e-05
0.00405504
0.19057
0.00374262
0.170109
-3.74105e-08
0.000129814
0.00364194
0.164006
-4.57109e-09
0.000189412
0.00391625
0.185038
0.00017713
0.00413814
0.202064
0.000105349
0.00429203
0.214069
-3.20042e-08
0.00437108
0.220274
-0.000105411
0.00437108
0.220274
-0.000177189
0.00429203
0.214069
-0.000189463
0.00413815
0.202064
-0.000129857
0.00391626
0.185038
0.00364195
0.164006
-3.98198e-08
0.00016496
0.00325454
0.151607
-5.56075e-09
0.000239036
0.00346989
0.172828
0.000222375
0.00363998
0.189868
0.000131826
0.00375595
0.201806
-3.51171e-08
0.00381497
0.207953
-0.000131894
0.00381497
0.207953
-0.000222438
0.00375595
0.201806
-0.000239091
0.00363998
0.189868
-0.000165006
0.0034699
0.172828
0.00325455
0.151607
-4.12557e-08
0.000198642
0.133739
-6.26606e-09
0.00265229
0.000286836
0.154932
0.00279535
0.000266306
0.171723
0.00290855
0.000157556
0.183396
0.00298615
-3.6817e-08
0.189379
0.00302556
-0.000157628
0.189379
0.00302556
-0.000266372
0.183396
0.00298616
-0.000286893
0.171723
0.00290855
-0.000198688
0.154931
0.00279535
0.133739
-4.07679e-08
0.0026523
-1.36254e-06
7.35775e-05
0.0287329
-1.77146e-10
-1.96403e-06
8.076e-05
0.0317097
-1.58494e-06
8.69167e-05
0.0342131
-8.77151e-07
9.17137e-05
0.0360238
-1.31872e-09
9.42482e-05
0.0369742
8.74517e-07
9.42483e-05
0.0369742
1.5823e-06
9.1714e-05
0.0360238
1.96136e-06
8.69171e-05
0.0342131
1.35982e-06
8.07605e-05
0.0317097
7.35778e-05
0.0287329
-2.64284e-09
-1.67375e-06
0.000277366
0.0772705
-4.89633e-10
-2.52106e-06
0.000306354
0.0853001
-2.04661e-06
0.000331441
0.0920314
-1.09921e-06
0.000350475
0.0968881
-4.23617e-09
0.000360628
0.0994335
1.09076e-06
0.000360628
0.0994335
2.03827e-06
0.000350476
0.0968881
2.5128e-06
0.000331442
0.0920314
1.66559e-06
0.000306356
0.0853001
0.000277367
0.0772705
-7.72878e-09
6.38839e-07
0.000571864
0.114795
-8.2632e-10
7.72408e-07
0.000632654
0.1269
9.7742e-07
0.000685103
0.137006
7.13073e-07
0.000724309
0.144279
-7.35524e-09
0.000745222
0.148084
-7.27677e-07
0.000745222
0.148084
-9.91724e-07
0.000724311
0.144279
-7.85889e-07
0.000685105
0.137006
-6.50696e-07
0.000632656
0.1269
0.000571867
0.114795
-1.24285e-08
5.47965e-06
0.000901354
0.14205
-1.21571e-09
8.0791e-06
0.000995719
0.157344
7.83302e-06
0.00107682
0.170051
4.79956e-06
0.00113669
0.179167
-1.06125e-08
0.0011685
0.183929
-4.82057e-06
0.0011685
0.183929
-7.85342e-06
0.00113669
0.179167
-8.09851e-06
0.00107682
0.170051
-5.49768e-06
0.000995724
0.157344
0.000901359
0.14205
-1.71271e-08
1.31435e-05
0.0012051
0.159803
-1.635e-09
1.94628e-05
0.00132691
0.177493
1.85223e-05
0.00143074
0.192108
1.11717e-05
0.00150647
0.202557
-1.39315e-08
0.00154648
0.208005
-1.11992e-05
0.00154648
0.208005
-1.85487e-05
0.00150647
0.202557
-1.94876e-05
0.00143074
0.192108
-1.3166e-05
0.00132691
0.177493
0.00120511
0.159803
-2.1232e-08
2.33856e-05
0.00143025
0.168841
-2.09819e-09
3.45631e-05
0.00156744
0.188227
3.2702e-05
0.001683
0.204145
1.96208e-05
0.0017662
0.215481
-1.72268e-08
0.00180986
0.221377
-1.96547e-05
0.00180987
0.221377
-3.27343e-05
0.0017662
0.215481
-3.45929e-05
0.00168301
0.204145
-2.34121e-05
0.00156745
0.188227
0.00143026
0.168841
-2.47007e-08
3.57859e-05
0.00154038
0.169963
-2.63632e-09
5.27294e-05
0.00167815
0.190443
4.97296e-05
0.00179239
0.207147
2.97503e-05
0.00187349
0.218991
-2.0382e-08
0.00191572
0.225134
-2.97903e-05
0.00191572
0.225134
-4.97673e-05
0.0018735
0.218991
-5.27637e-05
0.0017924
0.207147
-3.58158e-05
0.00167815
0.190442
0.00154039
0.169963
-2.75065e-08
4.98856e-05
0.00152
0.163977
-3.24829e-09
7.32649e-05
0.00164409
0.185049
6.88544e-05
0.00174513
0.202115
4.10744e-05
0.00181573
0.214154
-2.32171e-08
0.00185215
0.220379
-4.11199e-05
0.00185216
0.220379
-6.8897e-05
0.00181574
0.214154
-7.3303e-05
0.00174514
0.202115
-4.99181e-05
0.00164409
0.185049
0.00152
0.163977
-2.95608e-08
6.56657e-05
0.00137491
0.151687
-3.88437e-09
9.56345e-05
0.00147494
0.172968
8.93066e-05
0.00155442
0.190065
5.30644e-05
0.00160897
0.202049
-2.552e-08
0.00163683
0.208221
-5.31142e-05
0.00163683
0.208221
-8.93529e-05
0.00160897
0.202049
-9.56753e-05
0.00155442
0.190065
-6.56999e-05
0.00147494
0.172968
0.00137492
0.151686
-3.09552e-08
8.11294e-05
0.133901
-4.33927e-09
0.00113167
0.000117758
0.15517
0.00119998
0.000109752
0.172031
0.00125427
6.50819e-05
0.183758
0.00129163
-2.69433e-08
0.18977
0.00131066
-6.51344e-05
0.18977
0.00131066
-0.000109801
0.183758
0.00129163
-0.0001178
0.172031
0.00125427
-8.11643e-05
0.15517
0.00119998
0.133901
-3.11725e-08
0.00113168
-3.81628e-07
1.83064e-05
0.028715
-1.1742e-10
-5.90713e-07
2.02887e-05
0.0316896
-4.77357e-07
2.2112e-05
0.0341909
-2.66086e-07
2.36182e-05
0.036
-9.48573e-10
2.44315e-05
0.0369495
2.64196e-07
2.44315e-05
0.0369495
4.75481e-07
2.36183e-05
0.036
5.88842e-07
2.21123e-05
0.0341909
3.79759e-07
2.0289e-05
0.0316896
1.83067e-05
0.028715
-1.77567e-09
-5.1961e-07
8.34394e-05
0.0772059
-3.37706e-10
-8.83831e-07
9.29297e-05
0.0852278
-7.4757e-07
0.000101408
0.091952
-4.13928e-07
0.000108017
0.0968034
-3.03224e-09
0.000111585
0.099346
4.07897e-07
0.000111585
0.099346
7.41654e-07
0.000108017
0.0968034
8.78033e-07
0.000101408
0.091952
5.13941e-07
9.29309e-05
0.0852278
8.34402e-05
0.0772059
-5.26438e-09
2.57995e-07
0.000186599
0.114691
-5.72573e-10
1.78049e-07
0.000207984
0.126785
2.07315e-07
0.0002268
0.136881
1.54113e-07
0.000241125
0.144146
-5.25163e-09
0.000248837
0.147947
-1.64517e-07
0.000248837
0.147947
-2.17468e-07
0.000241126
0.144146
-1.87446e-07
0.000226801
0.136881
-2.66246e-07
0.000207986
0.126785
0.000186601
0.114691
-8.53661e-09
2.01654e-06
0.000308809
0.141926
-8.43658e-10
2.81598e-06
0.000343569
0.157208
2.67313e-06
0.000373887
0.169904
1.62102e-06
0.000396605
0.179013
-7.56301e-09
0.000408769
0.183771
-1.63598e-06
0.00040877
0.183771
-2.6876e-06
0.000396607
0.179013
-2.82969e-06
0.000373889
0.169904
-2.02914e-06
0.000343572
0.157207
0.000308812
0.141926
-1.1866e-08
4.92944e-06
0.000427376
0.15968
-1.1314e-09
7.15691e-06
0.000473835
0.17736
6.75228e-06
0.00051394
0.191969
4.05405e-06
0.000543576
0.202413
-9.90578e-09
0.000559345
0.207858
-4.0736e-06
0.000559346
0.207858
-6.77106e-06
0.000543578
0.202413
-7.17444e-06
0.000513944
0.191969
-4.94529e-06
0.000473839
0.17736
0.00042738
0.15968
-1.48382e-08
8.95163e-06
0.0005209
0.168738
-1.44133e-09
1.31301e-05
0.000574738
0.188122
1.23781e-05
0.000620615
0.204039
7.41172e-06
0.000654044
0.215375
-1.22236e-08
0.000671702
0.221272
-7.43578e-06
0.000671703
0.221272
-1.24011e-05
0.000654046
0.215375
-1.31513e-05
0.000620619
0.204039
-8.97041e-06
0.000574743
0.188121
0.000520905
0.168738
-1.74157e-08
1.39513e-05
0.000573196
0.169897
-1.78775e-09
2.05157e-05
0.000628594
0.190382
1.93262e-05
0.000675049
0.207094
1.15534e-05
0.000708392
0.218944
-1.4443e-08
0.000725856
0.225091
-1.15817e-05
0.000725857
0.225091
-1.93531e-05
0.000708394
0.218944
-2.05401e-05
0.000675053
0.207094
-1.39726e-05
0.000628599
0.190382
0.000573201
0.169897
-1.9582e-08
1.97568e-05
0.000575802
0.163954
-2.16794e-09
2.90251e-05
0.000626834
0.185042
2.72777e-05
0.000668806
0.202123
1.62711e-05
0.000698414
0.214175
-1.64573e-08
0.000713765
0.220407
-1.63034e-05
0.000713766
0.220407
-2.7308e-05
0.000698417
0.214175
-2.90523e-05
0.000668809
0.202123
-1.97802e-05
0.000626839
0.185041
0.000575806
0.163954
-2.1281e-08
2.62982e-05
0.000528867
0.151707
-2.55274e-09
3.83355e-05
0.000570935
0.173011