/*--------------------------------*- C++ -*----------------------------------*\
| =========                 |                                                 |
| \\      /  F ield         | OpenFOAM: The Open Source CFD Toolbox           |
|  \\    /   O peration     | Version:  2106                                  |
|   \\  /    A nd           | Website:  www.openfoam.com                      |
|    \\/     M anipulation  |                                                 |
\*---------------------------------------------------------------------------*/
FoamFile
{
    version     2.0;
    format      ascii;
    arch        "LSB;label=32;scalar=64";
    class       surfaceScalarField;
    location    "0.58";
    object      phi;
}
// * * * * * * * * * * * * * * * * * * * * * * * * * * * * * * * * * * * * * //

dimensions      [0 3 -1 0 0 0 0];

oriented        oriented;

internalField   nonuniform List<scalar> 
29100
(
0.00118088
0.150394
0.0809188
-2.33195e-10
0.00145313
0.155271
0.0889248
0.00124701
0.15869
0.0956126
0.000710178
0.160968
0.1004
-2.78486e-09
0.162111
0.102892
-0.000710183
0.162111
0.102892
-0.00124701
0.160968
0.1004
-0.00145314
0.15869
0.0956126
-0.00118089
0.155271
0.0889248
0.150394
0.0809188
-3.8012e-09
0.00236432
0.208238
0.155454
-4.71703e-10
0.00328415
0.212822
0.168978
0.00292919
0.215893
0.180035
0.0016945
0.21781
0.187855
-7.67991e-09
0.218749
0.191896
-0.00169452
0.218749
0.191896
-0.00292921
0.21781
0.187855
-0.00328416
0.215893
0.180035
-0.00236433
0.212822
0.168978
0.208238
0.155454
-1.00084e-08
0.00301612
0.219374
0.184679
-6.83773e-10
0.00426606
0.222299
0.199702
0.00382944
0.224205
0.211795
0.00221796
0.225244
0.220271
-1.22125e-08
0.225727
0.224627
-0.00221799
0.225727
0.224627
-0.00382946
0.225244
0.220271
-0.00426608
0.224205
0.211795
-0.00301614
0.222299
0.199702
0.219374
0.184679
-1.55042e-08
0.00344478
0.206149
0.191779
-8.6828e-10
0.00480604
0.207406
0.20694
0.00430512
0.208171
0.218991
0.00248903
0.20841
0.227377
-1.66508e-08
0.20848
0.231669
-0.00248906
0.20848
0.231669
-0.00430515
0.20841
0.227377
-0.00480607
0.208171
0.218991
-0.00344481
0.207406
0.20694
0.206149
0.191779
-2.04165e-08
0.00367394
0.181231
0.186412
-1.03957e-09
0.0050565
0.181204
0.201208
0.0045172
0.181103
0.212851
0.00260823
0.180772
0.220905
-2.11881e-08
0.180555
0.225014
-0.00260827
0.180555
0.225014
-0.00451724
0.180772
0.220905
-0.00505653
0.181103
0.212851
-0.00367397
0.181204
0.201208
0.181231
0.186412
-2.49538e-08
0.00375868
0.151898
0.17391
-1.22356e-09
0.00512214
0.15102
0.188189
0.00456635
0.150354
0.199334
0.00263512
0.149689
0.207004
-2.59613e-08
0.149311
0.210907
-0.00263517
0.149311
0.210907
-0.0045664
0.149689
0.207004
-0.00512218
0.150354
0.199334
-0.00375872
0.15102
0.188189
0.151898
0.17391
-2.92081e-08
0.00376648
0.122231
0.157405
-1.47937e-09
0.00509677
0.120872
0.171166
0.00453685
0.119893
0.181837
0.00261793
0.119084
0.189146
-3.09953e-08
0.118648
0.192856
-0.00261799
0.118648
0.192856
-0.00453691
0.119084
0.189146
-0.00509682
0.119893
0.181837
-0.00376652
0.120872
0.171166
0.122231
0.157405
-3.33062e-08
0.00373191
0.0944462
0.138726
-1.83262e-09
0.00504261
0.0928648
0.152025
0.00448848
0.0917683
0.162281
0.0025912
0.0909619
0.169274
-3.61827e-08
0.0905446
0.172816
-0.00259127
0.0905446
0.172816
-0.00448855
0.0909619
0.169274
-0.00504267
0.0917683
0.162281
-0.00373196
0.0928648
0.152025
0.0944462
0.138726
-3.7228e-08
0.00369999
0.0696576
0.11893
-2.42164e-09
0.00502412
0.0680187
0.131831
0.00447344
0.0669772
0.14173
0.00258171
0.0662879
0.148452
-4.11814e-08
0.0659467
0.151848
-0.00258179
0.0659467
0.151848
-0.00447352
0.0662879
0.148452
-0.00502418
0.0669772
0.14173
-0.00370004
0.0680187
0.131831
0.0696576
0.11893
-4.07572e-08
0.00391995
0.0986177
-3.2939e-09
0.0481298
0.00521342
0.111181
0.0468333
0.00458558
0.12077
0.0460098
0.0026265
0.127253
0.0455116
-4.54875e-08
0.130521
0.0452673
-0.00262659
0.130521
0.0452673
-0.00458566
0.127253
0.0455116
-0.00521349
0.12077
0.0460098
-0.00392
0.111181
0.0468333
0.0986177
-4.41527e-08
0.0481297
-0.000240341
0.0365239
0.0446353
-3.98736e-10
-0.000242385
0.0396978
0.049229
-0.00017036
0.04238
0.0531606
-8.4835e-05
0.044298
0.056016
-4.51201e-09
0.0452902
0.0575174
8.48261e-05
0.0452902
0.0575174
0.000170352
0.044298
0.056016
0.000242377
0.04238
0.0531606
0.000240334
0.0396978
0.049229
0.0365239
0.0446353
-6.40187e-09
6.48616e-05
0.0806829
0.11123
-8.19265e-10
0.000253193
0.0864722
0.122015
0.000302489
0.0912867
0.131079
0.0002026
0.0946601
0.137593
-1.36166e-08
0.0963929
0.140996
-0.000202627
0.0963929
0.140996
-0.000302514
0.0946601
0.137593
-0.000253216
0.0912867
0.131079
-6.4882e-05
0.0864722
0.122015
0.0806829
0.11123
-1.81254e-08
0.000614598
0.112177
0.15257
-1.20951e-09
0.00103282
0.118885
0.166871
0.0010105
0.124391
0.178713
0.000617554
0.128174
0.18715
-2.26596e-08
0.130102
0.191536
-0.000617599
0.130102
0.191536
-0.00101054
0.128174
0.18715
-0.00103286
0.124391
0.178713
-0.000614632
0.118885
0.166871
0.112177
0.15257
-2.90162e-08
0.00123369
0.128669
0.174053
-1.5616e-09
0.00187675
0.13506
0.190122
0.00176588
0.140238
0.203254
0.00105464
0.143722
0.21254
-3.17375e-08
0.145481
0.217345
-0.00105471
0.145481
0.217345
-0.00176594
0.143722
0.21254
-0.0018768
0.140238
0.203254
-0.00123374
0.13506
0.190122
0.128669
0.174053
-3.89711e-08
0.00183904
0.131895
0.181347
-1.91621e-09
0.00267865
0.137279
0.19815
0.00247554
0.141573
0.211719
0.00146234
0.144393
0.221247
-4.09389e-08
0.1458
0.226157
-0.00146242
0.1458
0.226157
-0.00247562
0.144393
0.221247
-0.00267872
0.141573
0.211719
-0.0018391
0.137279
0.19815
0.131895
0.181347
-4.80972e-08
0.00238667
0.124885
0.178534
-2.31191e-09
0.00339195
0.128991
0.195472
0.00310233
0.132189
0.209007
0.00182123
0.13423
0.218449
-5.03306e-08
0.135232
0.223297
-0.00182133
0.135232
0.223297
-0.00310242
0.13423
0.218449
-0.00339203
0.132189
0.209007
-0.00238674
0.128991
0.195472
0.124885
0.178534
-5.64015e-08
0.00285346
0.110863
0.168573
-2.859e-09
0.00400024
0.113686
0.185324
0.00363772
0.115804
0.198584
0.00212831
0.117108
0.207777
-5.98006e-08
0.117736
0.212481
-0.00212843
0.117736
0.212481
-0.00363783
0.117108
0.207777
-0.00400033
0.115804
0.198584
-0.00285354
0.113686
0.185324
0.110863
0.168573
-6.39339e-08
0.00323361
0.0927446
0.153611
-3.53296e-09
0.00451321
0.0944132
0.170018
0.00409546
0.0956048
0.182898
0.00239241
0.0963091
0.191775
-6.90484e-08
0.0966423
0.196301
-0.00239254
0.0966423
0.196301
-0.00409558
0.0963091
0.191775
-0.00451332
0.0956048
0.182898
-0.0032337
0.0944132
0.170018
0.0927446
0.153611
-7.05143e-08
0.00356292
0.0729253
0.135186
-4.63482e-09
0.00498007
0.0736331
0.151194
0.00451333
0.0741404
0.163662
0.00263234
0.0744364
0.172205
-7.7278e-08
0.0745764
0.176546
-0.00263249
0.0745764
0.176546
-0.00451347
0.0744364
0.172205
-0.00498019
0.0741404
0.163662
-0.00356301
0.0736331
0.151194
0.0729253
0.135186
-7.54838e-08
0.00398861
0.114391
-6.40627e-09
0.0531636
0.00552521
0.130008
0.0532687
0.00496821
0.142065
0.0534024
0.00288155
0.150278
0.0534981
-8.34581e-08
0.154437
0.0535425
-0.00288171
0.154437
0.0535425
-0.00496835
0.150278
0.0534981
-0.00552533
0.142065
0.0534024
-0.00398871
0.130008
0.0532687
0.114391
-7.93473e-08
0.0531636
3.93028e-05
0.00999086
0.0346052
-4.33903e-10
3.5271e-05
0.0110242
0.0382088
2.97124e-05
0.0119012
0.041265
1.64638e-05
0.0125523
0.043477
-4.84217e-09
0.0128953
0.0446386
-1.64733e-05
0.0128953
0.0446386
-2.97215e-05
0.0125523
0.043477
-3.52794e-05
0.0119012
0.041265
-3.93106e-05
0.0110242
0.0382088
0.00999086
0.0346052
-7.19518e-09
0.00028137
0.0302928
0.0906466
-8.71957e-10
0.000382105
0.0330014
0.0999369
0.000341496
0.035268
0.107753
0.000199197
0.0369028
0.113385
-1.51427e-08
0.0377568
0.116334
-0.000199227
0.0377568
0.116334
-0.000341524
0.0369028
0.113385
-0.000382131
0.035268
0.107753
-0.000281394
0.0330014
0.0999369
0.0302928
0.0906466
-2.07982e-08
0.000600849
0.0511909
0.131071
-1.36592e-09
0.000852551
0.0551913
0.14443
0.000772367
0.0584947
0.155567
0.0004527
0.0608243
0.163549
-2.56909e-08
0.062031
0.167714
-0.00045275
0.062031
0.167714
-0.000772414
0.0608243
0.163549
-0.000852594
0.0584947
0.155567
-0.000600887
0.0551913
0.14443
0.0511909
0.131071
-3.35795e-08
0.000968007
0.0669899
0.157286
-1.85651e-09
0.00138918
0.0715656
0.173327
0.00126879
0.0752983
0.186571
0.000745123
0.0778794
0.196009
-3.64264e-08
0.0792044
0.200917
-0.000745195
0.0792044
0.200917
-0.00126886
0.0778794
0.196009
-0.00138924
0.0752983
0.186571
-0.000968059
0.0715656
0.173327
0.0669899
0.157286
-4.53399e-08
0.00135774
0.0756958
0.171284
-2.41004e-09
0.00194474
0.0801877
0.18894
0.00178064
0.0838037
0.203378
0.00104599
0.0862562
0.213605
-4.7303e-08
0.0875026
0.218905
-0.00104608
0.0875026
0.218905
-0.00178073
0.0862562
0.213605
-0.00194482
0.0838037
0.203378
-0.0013578
0.0801878
0.18894
0.0756958
0.171284
-5.60477e-08
0.00174965
0.0773268
0.175153
-3.05624e-09
0.00248914
0.081268
0.193652
0.0022781
0.0843863
0.208636
0.00133746
0.0864588
0.219187
-5.82645e-08
0.0875004
0.224636
-0.00133757
0.0875004
0.224636
-0.0022782
0.0864588
0.219187
-0.00248924
0.0843863
0.208636
-0.00174973
0.081268
0.193652
0.0773268
0.175153
-6.56135e-08
0.00212045
0.0729563
0.170823
-3.9138e-09
0.00299817
0.0760846
0.18963
0.00274123
0.0785026
0.204725
0.00160844
0.0800761
0.215293
-6.90645e-08
0.080858
0.220732
-0.00160857
0.080858
0.220731
-0.00274136
0.0800761
0.215293
-0.00299828
0.0785026
0.204725
-0.00212054
0.0760846
0.18963
0.0729563
0.170823
-7.3985e-08
0.00245405
0.0641369
0.159977
-4.94566e-09
0.00346181
0.0663556
0.17874
0.00316348
0.0680275
0.193671
0.00185531
0.0690959
0.204064
-7.92817e-08
0.0696219
0.209393
-0.00185547
0.069622
0.209393
-0.00316362
0.0690959
0.204064
-0.00346193
0.0680275
0.193671
-0.00245415
0.0663556
0.17874
0.0641369
0.159976
-8.08567e-08
0.00276297
0.05253
0.14403
-6.50961e-09
0.00389595
0.0538741
0.162542
0.00355457
0.0548809
0.17715
0.00208175
0.0555219
0.187252
-8.79249e-08
0.0558371
0.192413
-0.00208192
0.0558371
0.192413
-0.00355472
0.0555219
0.187252
-0.00389608
0.0548809
0.17715
-0.00276308
0.0538741
0.162542
0.05253
0.14403
-8.53055e-08
0.00310548
0.124154
-8.72988e-09
0.0396613
0.00434445
0.142333
0.0403108
0.00394125
0.156518
0.0408311
0.00229885
0.166262
0.0411806
-9.38351e-08
0.17122
0.0413532
-0.00229903
0.17122
0.0413532
-0.00394141
0.166262
0.0411806
-0.00434459
0.156518
0.0408311
-0.00310559
0.142333
0.0403108
0.124154
-8.78797e-08
0.0396613
-3.16185e-05
0.00407744
0.0305593
-4.80754e-10
-4.51551e-05
0.00449001
0.0337323
-3.64076e-05
0.00484012
0.0364161
-2.00724e-05
0.00510043
0.0383602
-4.42807e-09
0.00523681
0.0393817
2.00637e-05
0.00523681
0.0393817
3.63992e-05
0.00510043
0.0383602
4.51471e-05
0.00484012
0.0364161
3.1611e-05
0.00449001
0.0337323
0.00407744
0.0305593
-6.86574e-09
1.00722e-05
0.0126599
0.0820541
-1.00758e-09
1.73786e-05
0.0138723
0.0905473
2.1776e-05
0.0148996
0.097689
1.55321e-05
0.0156485
0.102843
-1.41456e-08
0.0160411
0.105545
-1.55599e-05
0.0160411
0.105545
-2.18025e-05
0.0156485
0.102843
-1.74025e-05
0.0148996
0.097689
-1.00931e-05
0.0138723
0.0905473
0.0126599
0.0820541
-1.99157e-08
0.000123545
0.0225337
0.121074
-1.57927e-09
0.000187323
0.0245468
0.133691
0.000179871
0.0262415
0.144232
0.000109575
0.0274579
0.151809
-2.43208e-08
0.028093
0.155772
-0.000109623
0.028093
0.155772
-0.000179917
0.0274579
0.151809
-0.000187365
0.0262415
0.144232
-0.000123582
0.0245468
0.133691
0.0225337
0.121074
-3.26214e-08
0.000294187
0.0312401
0.148286
-2.14462e-09
0.000438617
0.0338037
0.163925
0.000413462
0.0359409
0.176897
0.000247886
0.0374525
0.18618
-3.48009e-08
0.0382368
0.191021
-0.000247954
0.0382368
0.191021
-0.000413526
0.0374525
0.18618
-0.000438675
0.0359409
0.176897
-0.000294237
0.0338037
0.163925
0.0312401
0.148286
-4.42332e-08
0.000506339
0.0372576
0.16476
-2.78945e-09
0.000744216
0.0400306
0.182476
0.000696097
0.0423126
0.197054
0.000414639
0.0439021
0.207437
-4.54491e-08
0.0447206
0.212836
-0.000414728
0.0447206
0.212836
-0.00069618
0.0439022
0.207437
-0.000744291
0.0423126
0.197054
-0.000506403
0.0400306
0.182476
0.0372576
0.16476
-5.47015e-08
0.000743947
0.0399351
0.171732
-3.55312e-09
0.00108005
0.0425961
0.190751
0.00100477
0.0447489
0.206275
0.000596204
0.046224
0.217274
-5.61261e-08
0.0469771
0.222976
-0.000596314
0.0469771
0.222976
-0.00100487
0.046224
0.217274
-0.00108014
0.0447489
0.206275
-0.000744022
0.0425961
0.190751
0.0399351
0.171731
-6.39199e-08
0.000989711
0.0392918
0.170477
-4.56611e-09
0.00142437
0.0415958
0.190195
0.00132019
0.0434193
0.206158
0.000781404
0.0446478
0.217408
-6.65207e-08
0.0452692
0.223221
-0.000781534
0.0452692
0.223221
-0.00132031
0.0446478
0.217408
-0.00142448
0.0434194
0.206158
-0.000989797
0.0415958
0.190195
0.0392918
0.170477
-7.17983e-08
0.00123064
0.0358063
0.162231
-5.78395e-09
0.00176384
0.0376023
0.1822
0.00163062
0.0389905
0.198233
0.000963243
0.0399112
0.209468
-7.61795e-08
0.0403731
0.215252
-0.000963391
0.0403731
0.215252
-0.00163076
0.0399112
0.209468
-0.00176396
0.0389905
0.198233
-0.00123074
0.0376023
0.1822
0.0358064
0.162231
-7.8016e-08
0.00147092
0.030222
0.148144
-7.53443e-09
0.00210088
0.0314582
0.168056
0.00193467
0.0323988
0.183907
0.00113961
0.0330169
0.194942
-8.40915e-08
0.0333256
0.2006
-0.00113977
0.0333256
0.2006
-0.00193482
0.0330169
0.194942
-0.002101
0.0323988
0.183907
-0.00147102
0.0314582
0.168056
0.030222
0.148144
-8.16784e-08
0.00172526
0.129257
-9.93644e-09
0.0233935
0.00244603
0.148963
0.0241074
0.00223963
0.164454
0.0246693
0.00131364
0.175157
0.0250476
-8.91134e-08
0.180622
0.0252366
-0.00131381
0.180622
0.0252366
-0.00223979
0.175157
0.0250476
-0.00244617
0.164454
0.0246693
-0.00172536
0.148963
0.0241074
0.129257
-8.33546e-08
0.0233935
2.11573e-06
0.0013307
0.0292265
-4.33455e-10
-2.65473e-07
0.00147762
0.0322571
1.24196e-07
0.00160542
0.0348103
1.37267e-07
0.00170299
0.0366572
-3.72954e-09
0.00175502
0.0376268
-1.4462e-07
0.00175502
0.0376268
-1.31322e-07
0.00170299
0.0366572
2.58675e-07
0.00160543
0.0348103
-2.12196e-06
0.00147762
0.0322571
0.0013307
0.0292265
-6.07406e-09
3.08001e-05
0.00477541
0.0785786
-9.52475e-10
3.97883e-05
0.00527078
0.0867452
3.66264e-05
0.00569644
0.0936011
2.17166e-05
0.00601266
0.0985482
-1.20765e-08
0.00618022
0.101141
-2.17404e-05
0.00618022
0.101141
-3.66493e-05
0.00601266
0.0985482
-3.98096e-05
0.00569644
0.0936011
-3.08195e-05
0.00527079
0.0867452
0.00477541
0.0785785
-1.78272e-08
8.58906e-05
0.00921371
0.11655
-1.54589e-09
0.000121696
0.0101131
0.128813
0.000112301
0.0108791
0.139059
6.66434e-05
0.0114379
0.14643
-2.09242e-08
0.0117324
0.150286
-6.66846e-05
0.0117324
0.150286
-0.00011234
0.0114379
0.14643
-0.000121732
0.0108791
0.139059
-8.59226e-05
0.0101131
0.128813
0.00921372
0.11655
-2.898e-08
0.000167141
0.013539
0.143793
-2.15896e-09
0.000242639
0.0147724
0.159191
0.000225316
0.0158128
0.17198
0.000133792
0.0165605
0.181149
-3.01048e-08
0.0169521
0.185935
-0.000133851
0.0169521
0.185935
-0.000225372
0.0165605
0.181149
-0.00024269
0.0158128
0.17198
-0.000167185
0.0147724
0.159191
0.013539
0.143793
-3.92528e-08
0.00027159
0.0169197
0.161108
-2.86378e-09
0.000395791
0.0183428
0.178781
0.000368303
0.0195292
0.193365
0.000218652
0.0203696
0.203777
-3.94561e-08
0.0208066
0.2092
-0.000218729
0.0208066
0.2092
-0.000368376
0.0203696
0.203777
-0.000395856
0.0195292
0.193365
-0.000271645
0.0183428
0.178781
0.0169197
0.161108
-4.85243e-08
0.00039386
0.018859
0.169398
-3.68578e-09
0.000572156
0.0203053
0.18861
0.000532243
0.0214932
0.204351
0.000315737
0.0223221
0.215538
-4.88144e-08
0.0227497
0.221349
-0.000315832
0.0227497
0.221349
-0.000532332
0.0223221
0.215538
-0.000572234
0.0214932
0.20435
-0.000393926
0.0203053
0.18861
0.018859
0.169398
-5.66378e-08
0.00052648
0.0191829
0.169626
-4.72867e-09
0.000761504
0.0205026
0.189763
0.000707562
0.0215664
0.206139
0.000419327
0.0222974
0.217721
-5.7867e-08
0.0226713
0.223719
-0.000419439
0.0226713
0.223719
-0.000707666
0.0222974
0.217721
-0.000761595
0.0215664
0.206139
-0.000526555
0.0205026
0.189763
0.0191829
0.169626
-6.34837e-08
0.000662723
0.0179863
0.162765
-5.94761e-09
0.000955748
0.0190694
0.18334
0.000886522
0.0199248
0.199944
0.000524648
0.0205038
0.211623
-6.61894e-08
0.0207973
0.217651
-0.000524776
0.0207974
0.217651
-0.00088664
0.0205038
0.211623
-0.000955849
0.0199248
0.199944
-0.000662805
0.0190694
0.18334
0.0179864
0.162765
-6.87523e-08
0.000802572
0.0155591
0.149768
-7.60865e-09
0.00115199
0.0163497
0.170427
0.00106432
0.0169622
0.186958
0.000628208
0.0173714
0.19851
-7.28816e-08
0.0175775
0.204448
-0.00062835
0.0175775
0.204448
-0.00106445
0.0173714
0.19851
-0.0011521
0.0169622
0.186958
-0.000802659
0.0163498
0.170426
0.0155591
0.149768
-7.16494e-08
0.00094087
0.131558
-9.7599e-09
0.0123176
0.0013426
0.152106
0.012805
0.00123572
0.168335
0.0131878
0.000727208
0.17959
0.0134475
-7.69718e-08
0.185349
0.0135783
-0.000727357
0.185349
0.0135783
-0.00123586
0.17959
0.0134475
-0.00134272
0.168335
0.0131878
-0.000940959
0.152106
0.012805
0.131558
-7.26868e-08
0.0123177
-5.56677e-06
0.000578787
0.0286533
-3.71294e-10
-8.29979e-06
0.000636714
0.0316231
-6.58453e-06
0.000685739
0.0341228
-3.63207e-06
0.000723001
0.0359312
-2.96629e-09
0.000742586
0.0368806
3.6262e-06
0.000742586
0.0368806
6.57875e-06
0.000723002
0.0359312
8.29441e-06
0.00068574
0.0341228
5.56146e-06
0.000636715
0.0316231
0.000578788
0.0286533
-5.05179e-09
-9.45029e-07
0.00201638
0.0771419
-8.45775e-10
-2.038e-06
0.00222131
0.0851617
-7.6096e-07
0.00239595
0.0918896
9.06581e-08
0.0025258
0.0967446
-9.68223e-09
0.0025946
0.0992894
-1.09777e-07
0.0025946
0.0992894
7.42718e-07
0.0025258
0.0967445
2.01957e-06
0.00239596
0.0918896
9.29233e-07
0.00222132
0.0851617
0.00201638
0.0771419
-1.47405e-08
1.74721e-05
0.00392171
0.114627
-1.39622e-09
2.5827e-05
0.00431279
0.126713
2.53276e-05
0.00464612
0.136809
1.56493e-05
0.00489071
0.144075
-1.68544e-08
0.00501998
0.147877
-1.56825e-05
0.00501998
0.147877
-2.53594e-05
0.00489072
0.144075
-2.58561e-05
0.00464613
0.136809
-1.74981e-05
0.0043128
0.126713
0.00392171
0.114627
-2.39781e-08
5.03336e-05
0.00587707
0.141788
-1.98219e-09
7.4902e-05
0.00644006
0.157039
7.12878e-05
0.00691737
0.169713
4.30289e-05
0.00726333
0.178804
-2.43328e-08
0.00744533
0.183553
-4.30767e-05
0.00744534
0.183553
-7.1333e-05
0.00726334
0.178804
-7.49431e-05
0.00691738
0.169713
-5.03696e-05
0.00644007
0.157039
0.00587709
0.141788
-3.25142e-08
9.64155e-05
0.0075133
0.159375
-2.65355e-09
0.000142785
0.00819326
0.176982
0.00013481
0.00876435
0.191526
8.08025e-05
0.00917311
0.201921
-3.1958e-08
0.00938685
0.207339
-8.08651e-05
0.00938685
0.207339
-0.000134869
0.00917312
0.201921
-0.000142838
0.00876436
0.191526
-9.64609e-05
0.00819328
0.176981
0.00751332
0.159375
-4.02199e-08
0.000153587
0.00856697
0.168191
-3.42714e-09
0.000225878
0.0092883
0.187443
0.00021232
0.00988608
0.203242
0.000126808
0.0103082
0.214488
-3.95734e-08
0.0105274
0.220335
-0.000126885
0.0105274
0.220335
-0.000212392
0.0103082
0.214488
-0.000225941
0.0098861
0.203242
-0.00015364
0.00928832
0.187442
0.00856699
0.168191
-4.69522e-08
0.00021863
0.00890288
0.169072
-4.379e-09
0.000319607
0.00958841
0.189362
0.000299472
0.0101468
0.205898
0.000178424
0.0105355
0.217614
-4.69087e-08
0.0107357
0.223689
-0.000178515
0.0107357
0.223689
-0.000299557
0.0105355
0.217614
-0.000319681
0.0101468
0.205898
-0.000218691
0.00958843
0.189362
0.0089029
0.169072
-5.2609e-08
0.000288533
0.00851157
0.162868
-5.46783e-09
0.000420054
0.00909729
0.1837
0.000392349
0.00956533
0.200553
0.000233189
0.00988629
0.212432
-5.36154e-08
0.0100502
0.21857
-0.000233293
0.0100502
0.21857
-0.000392445
0.0098863
0.212432
-0.000420136
0.00956534
0.200553
-0.0002886
0.0090973
0.1837
0.00851158
0.162868
-5.69327e-08
0.000363468
0.00748879
0.150428
-6.87868e-09
0.000525536
0.00793567
0.171426
0.000488166
0.00828543
0.188275
0.0002891
0.00852183
0.200074
-5.89803e-08
0.00864158
0.206146
-0.000289214
0.00864158
0.206146
-0.00048827
0.00852183
0.200074
-0.000525625
0.00828545
0.188275
-0.000363538
0.00793568
0.171426
0.0074888
0.150427
-5.93041e-08
0.000438721
0.132595
-8.62739e-09
0.00601325
0.000630583
0.153547
0.0063026
0.000583487
0.170137
0.00653104
0.000344485
0.181664
0.00668691
-6.22545e-08
0.187569
0.00676575
-0.000344606
0.187569
0.00676575
-0.000583597
0.181664
0.00668692
-0.000630676
0.170137
0.00653105
-0.000438794
0.153547
0.00630261
0.132595
-6.01368e-08
0.00601326
-8.34783e-07
0.000186789
0.0284673
-3.09603e-10
-1.62613e-06
0.000206911
0.031417
-1.18757e-06
0.000224434
0.033898
-6.36545e-07
0.000238197
0.0356925
-2.26185e-09
0.000245541
0.0366344
6.32058e-07
0.000245541
0.0366344
1.1832e-06
0.000238197
0.0356925
1.62186e-06
0.000224435
0.033898
8.30635e-07
0.000206912
0.031417
0.000186789
0.0284673
-3.88691e-09
1.79625e-06
0.000730251
0.0765967
-7.45132e-10
1.88551e-06
0.000808682
0.0845598
2.04206e-06
0.000876642
0.0912373
1.33651e-06
0.00092808
0.0960554
-7.40062e-09
0.000955543
0.0985808
-1.35112e-06
0.000955543
0.0985808
-2.05617e-06
0.000928082
0.0960554
-1.89855e-06
0.000876645
0.0912372
-1.80812e-06
0.000808685
0.0845598
0.000730254
0.0765966
-1.1377e-08
9.78788e-06
0.00150251
0.113845
-1.22613e-09
1.37114e-05
0.00166067
0.125857
1.30073e-05
0.00179705
0.13589
7.87434e-06
0.00189845
0.143109
-1.29201e-08
0.0019524
0.146888
-7.89979e-06
0.0019524
0.146888
-1.30317e-05
0.00189845
0.143109
-1.37339e-05
0.00179705
0.135889
-9.8081e-06
0.00166068
0.125857
0.00150251
0.113845
-1.86599e-08
2.37888e-05
0.00233753
0.140929
-1.72851e-09
3.46255e-05
0.00257511
0.156114
3.25987e-05
0.0027786
0.168733
1.9549e-05
0.00292787
0.177788
-1.8691e-08
0.0030069
0.182518
-1.95857e-05
0.0030069
0.182518
-3.26336e-05
0.00292787
0.177788
-3.46573e-05
0.00277861
0.168733
-2.38168e-05
0.00257512
0.156114
0.00233754
0.140929
-2.5433e-08
4.38696e-05
0.00307659
0.158592
-2.29514e-09
6.4392e-05
0.00337418
0.176162
6.05383e-05
0.0036267
0.190682
3.61955e-05
0.00380957
0.201064
-2.45776e-08
0.00390582
0.206477
-3.62436e-05
0.00390582
0.206477
-6.05836e-05
0.00380958
0.201064
-6.44329e-05
0.00362671
0.190682
-4.39049e-05
0.00337419
0.176162
0.0030766
0.158592
-3.15697e-08
6.94752e-05
0.00359414
0.167604
-2.93719e-09
0.000101949
0.00392023
0.186864
9.57315e-05
0.00419344
0.202682
5.71397e-05
0.00438868
0.213948
-3.04476e-08
0.00449072
0.219807
-5.71992e-05
0.00449072
0.219807
-9.57871e-05
0.00438869
0.213948
-0.000101999
0.00419345
0.202682
-6.95171e-05
0.00392024
0.186864
0.00359415
0.167604
-3.69515e-08
9.94295e-05
0.00381356
0.168753
-3.70237e-09
0.000145529
0.00413274
0.189103
0.000136447
0.00439587
0.205705
8.13196e-05
0.00458124
0.217477
-3.60902e-08
0.00467736
0.223583
-8.139e-05
0.00467736
0.223583
-0.000136512
0.00458125
0.217477
-0.000145586
0.00439588
0.205705
-9.94772e-05
0.00413276
0.189103
0.00381358
0.168753
-4.14975e-08
0.00013246
0.00371248
0.162837
-4.5588e-09
0.000193316
0.00399301
0.183779
0.000180801
0.00421998
0.200742
0.000107535
0.00437741
0.212709
-4.12416e-08
0.0044583
0.218896
-0.000107615
0.0044583
0.218896
-0.000180875
0.00437742
0.212709
-0.00019338
0.00421999
0.200742
-0.000132512
0.00399303
0.183779
0.00371249
0.162836
-4.50127e-08
0.000168315
0.00331893
0.150653
-5.62506e-09
0.000243915
0.00353943
0.171804
0.000226924
0.00371359
0.188798
0.000134524
0.00383236
0.200711
-4.5382e-08
0.00389282
0.206846
-0.000134612
0.00389282
0.206846
-0.000227005
0.00383237
0.200711
-0.000243984
0.0037136
0.188798
-0.00016837
0.00353944
0.171804
0.00331894
0.150653
-4.70637e-08
0.000202577
0.133005
-6.89931e-09
0.00270586
0.000292566
0.154144
0.00285246
0.000271655
0.170903
0.0029685
0.000160728
0.182559
0.00304805
-4.79819e-08
0.188534
0.00308845
-0.000160821
0.188534
0.00308845
-0.000271739
0.182559
0.00304805
-0.000292638
0.170903
0.00296851
-0.000202634
0.154144
0.00285247
0.133005
-4.79738e-08
0.00270586
-1.37035e-06
7.5464e-05
0.0283933
-2.1739e-10
-1.97378e-06
8.28429e-05
0.0313347
-1.58827e-06
8.9164e-05
0.0338084
-8.77752e-07
9.4089e-05
0.0355977
-1.65976e-09
9.66913e-05
0.0365369
8.74471e-07
9.66914e-05
0.0365369
1.58507e-06
9.40893e-05
0.0355977
1.97068e-06
8.91646e-05
0.0338084
1.36735e-06
8.28437e-05
0.0313347
7.54645e-05
0.0283932
-2.82943e-09
-1.64487e-06
0.000284499
0.0763893
-5.50719e-10
-2.47591e-06
0.000314258
0.0843293
-1.99587e-06
0.000339992
0.090986
-1.0661e-06
0.000359516
0.095789
-5.4421e-09
0.00036993
0.0983065
1.05535e-06
0.00036993
0.0983065
1.98551e-06
0.000359517
0.095789
2.4661e-06
0.000339994
0.0909859
1.63566e-06
0.00031426
0.0843292
0.0002845
0.0763892
-8.37895e-09
7.51621e-07
0.000586503
0.113542
-9.25032e-10
9.54895e-07
0.000648875
0.125522
1.1612e-06
0.000702673
0.135527
8.25985e-07
0.000742885
0.142726
-9.51185e-09
0.000764333
0.146494
-8.44714e-07
0.000764334
0.146494
-1.17911e-06
0.000742887
0.142726
-9.71217e-07
0.000702676
0.135527
-7.65417e-07
0.000648879
0.125522
0.000586508
0.113542
-1.36214e-08
5.75705e-06
0.00092437
0.140585
-1.34097e-09
8.50102e-06
0.00102121
0.155739
8.23955e-06
0.00110442
0.168332
5.04534e-06
0.00116585
0.177368
-1.37775e-08
0.00119848
0.182089
-5.07241e-06
0.00119848
0.182089
-8.26525e-06
0.00116585
0.177368
-8.52459e-06
0.00110442
0.168332
-5.77788e-06
0.00102122
0.155738
0.000924376
0.140585
-1.88917e-08
1.36435e-05
0.00123595
0.158267
-1.79398e-09
2.0217e-05
0.00136101
0.175816
1.9242e-05
0.0014676
0.19032
1.16041e-05
0.00154534
0.200692
-1.81296e-08
0.00158642
0.2061
-1.16397e-05
0.00158642
0.2061
-1.92755e-05
0.00154535
0.200692
-2.02474e-05
0.00146761
0.19032
-1.36698e-05
0.00136102
0.175815
0.00123596
0.158267
-2.36393e-08
2.41713e-05
0.00146711
0.167349
-2.29347e-09
3.57389e-05
0.00160806
0.186605
3.38179e-05
0.00172677
0.202425
2.0289e-05
0.00181225
0.213694
-2.24615e-08
0.00185711
0.219557
-2.03329e-05
0.00185712
0.219557
-3.3859e-05
0.00181225
0.213694
-3.57757e-05
0.00172678
0.202424
-2.42026e-05
0.00160807
0.186605
0.00146712
0.167349
-2.78055e-08
3.69105e-05
0.00158047
0.168603
-2.87266e-09
5.44001e-05
0.00172211
0.188972
5.13081e-05
0.00183957
0.205595
3.0693e-05
0.00192297
0.217387
-2.66179e-08
0.00196639
0.223505
-3.07449e-05
0.00196639
0.223505
-5.13564e-05
0.00192297
0.217387
-5.44428e-05
0.00183958
0.205595
-3.69462e-05
0.00172212
0.188972
0.00158048
0.168603
-3.13643e-08
5.13902e-05
0.00156002
0.162806
-3.51091e-09
7.54831e-05
0.0016877
0.183789
7.09394e-05
0.00179167
0.200794
4.23155e-05
0.00186434
0.212796
-3.04119e-08
0.00190182
0.219003
-4.23748e-05
0.00190183
0.219003
-7.09941e-05
0.00186434
0.212796
-7.55308e-05
0.00179168
0.200794
-5.14295e-05
0.00168771
0.183789
0.00156003
0.162805
-3.41826e-08
6.75849e-05
0.00141158
0.150734
-4.26778e-09
9.84269e-05
0.00151458
0.171946
9.19112e-05
0.00159643
0.189
5.46087e-05
0.00165261
0.20096
-3.34976e-08
0.0016813
0.207121
-5.46738e-05
0.0016813
0.207121
-9.19711e-05
0.00165261
0.20096
-9.84787e-05
0.00159644
0.189
-6.76268e-05
0.00151459
0.171946
0.00141158
0.150734
-3.59778e-08
8.33911e-05
0.133171
-5.12116e-09
0.00116228
0.000121055
0.154388
0.00123265
0.000112833
0.171219
0.00128858
6.69086e-05
0.18293
0.00132708
-3.55383e-08
0.188936
0.00134669
-6.69776e-05
0.188936
0.00134669
-0.000112896
0.18293
0.00132709
-0.000121109
0.171219
0.00128859
-8.34343e-05
0.154388
0.00123265
0.133171
-3.69635e-08
0.00116228
-3.91049e-07
1.91438e-05
0.0283745
-1.52443e-10
-6.02934e-07
2.12103e-05
0.0313137
-4.85391e-07
2.31053e-05
0.0337852
-2.70023e-07
2.4668e-05
0.0355728
-1.17872e-09
2.55113e-05
0.0365111
2.677e-07
2.55114e-05
0.0365111
4.83127e-07
2.46682e-05
0.0355728
6.00747e-07
2.31057e-05
0.0337852
3.8894e-07
2.12108e-05
0.0313137
1.91442e-05
0.0283745
-1.96434e-09
-5.21146e-07
8.66762e-05
0.0763223
-4.05514e-10
-8.84148e-07
9.65158e-05
0.0842543
-7.42846e-07
0.000105292
0.0909036
-4.09475e-07
0.000112129
0.0957012
-3.86298e-09
0.00011582
0.0982157
4.01856e-07
0.00011582
0.0982157
7.35511e-07
0.00011213
0.0957012
8.77203e-07
0.000105294
0.0909036
5.14619e-07
9.65175e-05
0.0842543
8.66774e-05
0.0763222
-5.88304e-09
2.92197e-07
0.000193374
0.113435
-6.76189e-10
2.32894e-07
0.000215506
0.125404
2.65171e-07
0.000234962
0.135397
1.90335e-07
0.000249771
0.142589
-6.75901e-09
0.000257741
0.146353
-2.03622e-07
0.000257741
0.146353
-2.77893e-07
0.000249772
0.142589
-2.44408e-07
0.000234964
0.135397
-3.01915e-07
0.000215508
0.125404
0.000193377
0.113435
-9.62515e-09
2.12277e-06
0.000319648
0.140457
-9.80718e-10
2.97814e-06
0.000355605
0.155598
2.83087e-06
0.00038695
0.16818
1.71672e-06
0.000410432
0.177209
-9.80129e-09
0.000423004
0.181926
-1.73596e-06
0.000423005
0.181926
-2.84916e-06
0.000410434
0.177209
-2.99493e-06
0.000386953
0.16818
-2.1376e-06
0.00035561
0.155598
0.000319653
0.140457
-1.34563e-08
5.14125e-06
0.00044212
0.158139
-1.31012e-09
7.47675e-06
0.000490182
0.175679
7.0586e-06
0.000531655
0.190175
4.23819e-06
0.000562298
0.200543
-1.28961e-08
0.000578601
0.205949
-4.26348e-06
0.000578602
0.205949
-7.08248e-06
0.000562301
0.200543
-7.49841e-06
0.00053166
0.190175
-5.16009e-06
0.000490187
0.175679
0.000442126
0.158139
-1.69535e-08
9.30304e-06
0.000538737
0.167243
-1.6675e-09
1.36567e-05
0.000594451
0.186497
1.28789e-05
0.000641917
0.202315
7.71156e-06
0.0006765
0.213585
-1.59741e-08
0.000694769
0.219449
-7.74282e-06
0.00069477
0.219449
-1.29082e-05
0.000676504
0.213585
-1.3683e-05
0.000641922
0.202315
-9.32555e-06
0.000594458
0.186497
0.000538744
0.167243
-2.00654e-08
1.44718e-05
0.000592797
0.168534
-2.06844e-09
2.12905e-05
0.000650156
0.188909
2.00596e-05
0.000698248
0.20554
1.19912e-05
0.000732768
0.217339
-1.89304e-08
0.000750848
0.223461
-1.20282e-05
0.000750849
0.223461
-2.00941e-05
0.000732771
0.217339
-2.13211e-05
0.000698254
0.20554
-1.44977e-05
0.000650163
0.188909
0.000592805
0.168534
-2.27728e-08
2.04704e-05
0.00059554
0.162782
-2.49871e-09
3.00796e-05
0.000648411
0.183781
2.82706e-05
0.000691891
0.200802
1.68621e-05
0.000722566
0.212818
-2.16416e-08
0.00073847
0.219033
-1.69044e-05
0.000738472
0.219032
-2.83097e-05
0.00072257
0.212817
-3.0114e-05
0.000691897
0.200802
-2.0499e-05
0.000648417
0.183781
0.000595547
0.162782
-2.49879e-08
2.72261e-05
0.000547076
0.150755
-2.98752e-09
3.96887e-05
0.000590687
0.171992
3.70882e-05
0.00062555