/*--------------------------------*- C++ -*----------------------------------*\
| =========                 |                                                 |
| \\      /  F ield         | OpenFOAM: The Open Source CFD Toolbox           |
|  \\    /   O peration     | Version:  2106                                  |
|   \\  /    A nd           | Website:  www.openfoam.com                      |
|    \\/     M anipulation  |                                                 |
\*---------------------------------------------------------------------------*/
FoamFile
{
    version     2.0;
    format      ascii;
    arch        "LSB;label=32;scalar=64";
    class       volVectorField;
    location    "0.83";
    object      U;
}
// * * * * * * * * * * * * * * * * * * * * * * * * * * * * * * * * * * * * * //

dimensions      [0 1 -1 0 0 0 0];

internalField   nonuniform List<vector> 
10000
(
(0.0625632 0.0737207 0.345093)
(0.053359 0.0838409 0.359572)
(0.0398493 0.0929923 0.370935)
(0.0247211 0.0993748 0.378784)
(0.00837786 0.102675 0.382772)
(-0.00837786 0.102675 0.382772)
(-0.0247211 0.0993748 0.378784)
(-0.0398493 0.0929923 0.370935)
(-0.053359 0.0838409 0.359572)
(-0.0625632 0.0737207 0.345093)
(0.172066 0.204137 0.727824)
(0.145246 0.231381 0.747472)
(0.108435 0.255343 0.762111)
(0.0670892 0.27193 0.772008)
(0.0227095 0.280486 0.776957)
(-0.0227096 0.280486 0.776957)
(-0.0670892 0.27193 0.772008)
(-0.108435 0.255343 0.762111)
(-0.145246 0.231381 0.747472)
(-0.172066 0.204137 0.727824)
(0.222647 0.264373 0.923731)
(0.185839 0.296085 0.939557)
(0.137855 0.323777 0.950621)
(0.0848699 0.342721 0.957923)
(0.0286577 0.352429 0.961505)
(-0.0286577 0.352429 0.961505)
(-0.0848699 0.342721 0.957923)
(-0.137855 0.323777 0.950621)
(-0.18584 0.296085 0.939557)
(-0.222647 0.264373 0.923731)
(0.237677 0.281764 1.02284)
(0.196441 0.311649 1.03335)
(0.14482 0.337796 1.04001)
(0.088745 0.355484 1.04428)
(0.0298983 0.364489 1.04631)
(-0.0298984 0.364489 1.04631)
(-0.088745 0.355484 1.04428)
(-0.14482 0.337796 1.04001)
(-0.196441 0.311649 1.03335)
(-0.237677 0.281764 1.02284)
(0.235749 0.278982 1.07119)
(0.193248 0.304988 1.07715)
(0.141717 0.32788 1.08028)
(0.0864954 0.343232 1.08215)
(0.0290843 0.351 1.083)
(-0.0290844 0.351 1.083)
(-0.0864955 0.343232 1.08215)
(-0.141717 0.32788 1.08028)
(-0.193248 0.304988 1.07715)
(-0.235749 0.278982 1.07119)
(0.224751 0.265483 1.09228)
(0.18284 0.286898 1.09486)
(0.13345 0.3059 1.09551)
(0.0811493 0.31857 1.09575)
(0.0272387 0.324944 1.0958)
(-0.0272388 0.324944 1.0958)
(-0.0811494 0.31857 1.09575)
(-0.13345 0.3059 1.09551)
(-0.18284 0.286898 1.09486)
(-0.224752 0.265483 1.09228)
(0.208424 0.245569 1.09889)
(0.168275 0.262152 1.09917)
(0.122268 0.277014 1.09825)
(0.0740899 0.286904 1.09749)
(0.0248275 0.291859 1.09706)
(-0.0248276 0.291859 1.09706)
(-0.07409 0.286904 1.09749)
(-0.122268 0.277014 1.09825)
(-0.168275 0.262152 1.09917)
(-0.208424 0.245569 1.09889)
(0.189097 0.221962 1.0982)
(0.151495 0.233758 1.09702)
(0.109613 0.244466 1.09522)
(0.0662048 0.251628 1.09391)
(0.0221502 0.255215 1.09323)
(-0.0221503 0.255215 1.09323)
(-0.0662049 0.251628 1.09391)
(-0.109613 0.244466 1.09522)
(-0.151495 0.233758 1.09702)
(-0.189097 0.221962 1.0982)
(0.168302 0.196451 1.09422)
(0.133873 0.203644 1.09216)
(0.0964703 0.210326 1.08994)
(0.0580849 0.214924 1.08839)
(0.0194039 0.217247 1.08761)
(-0.019404 0.217247 1.08761)
(-0.058085 0.214924 1.08839)
(-0.0964704 0.210326 1.08994)
(-0.133873 0.203644 1.09216)
(-0.168303 0.196451 1.09422)
(0.147202 0.170686 1.08917)
(0.116609 0.171788 1.08665)
(0.0834479 0.17507 1.08429)
(0.0500589 0.177461 1.0827)
(0.0166931 0.178691 1.0819)
(-0.0166932 0.178691 1.0819)
(-0.050059 0.177461 1.0827)
(-0.083448 0.17507 1.08429)
(-0.116609 0.171788 1.08665)
(-0.147202 0.170686 1.08917)
(0.0111957 0.0143011 0.2665)
(0.00940597 0.0175919 0.278761)
(0.00710233 0.0202354 0.288802)
(0.00449601 0.0220477 0.295791)
(0.00153831 0.022992 0.299368)
(-0.00153832 0.022992 0.299368)
(-0.00449602 0.0220477 0.295791)
(-0.00710234 0.0202354 0.288802)
(-0.00940598 0.0175919 0.278761)
(-0.0111957 0.0143011 0.2665)
(0.054422 0.0658478 0.629467)
(0.0467321 0.0792238 0.65141)
(0.0357655 0.0906854 0.669008)
(0.0226112 0.0988068 0.681111)
(0.00773776 0.10307 0.687254)
(-0.00773779 0.10307 0.687254)
(-0.0226112 0.0988068 0.681111)
(-0.0357655 0.0906854 0.669008)
(-0.0467321 0.0792237 0.65141)
(-0.0544221 0.0658478 0.629467)
(0.0977992 0.116814 0.876417)
(0.083441 0.138156 0.900238)
(0.0635241 0.156471 0.918923)
(0.03992 0.169398 0.931618)
(0.0136205 0.176149 0.938011)
(-0.0136205 0.176149 0.938011)
(-0.03992 0.169398 0.931618)
(-0.0635241 0.156471 0.918923)
(-0.0834411 0.138156 0.900238)
(-0.0977992 0.116814 0.876417)
(0.133895 0.158751 1.04418)
(0.113268 0.18489 1.06617)
(0.0856782 0.207216 1.08301)
(0.0535372 0.22286 1.09431)
(0.0182148 0.230985 1.09996)
(-0.0182149 0.230985 1.09996)
(-0.0535373 0.22286 1.09431)
(-0.0856783 0.207216 1.08301)
(-0.113268 0.18489 1.06617)
(-0.133895 0.158751 1.04418)
(0.159746 0.188324 1.15723)
(0.133982 0.216203 1.17584)
(0.100712 0.239855 1.18972)
(0.062608 0.25631 1.1989)
(0.0212463 0.264809 1.20345)
(-0.0212464 0.264809 1.20345)
(-0.0626081 0.25631 1.1989)
(-0.100712 0.239855 1.18972)
(-0.133982 0.216203 1.17584)
(-0.159746 0.188324 1.15723)
(0.175394 0.205704 1.23228)
(0.145865 0.232836 1.24711)
(0.108985 0.255655 1.25783)
(0.0674274 0.271423 1.26483)
(0.0228275 0.279525 1.26826)
(-0.0228276 0.279525 1.26826)
(-0.0674275 0.271423 1.26483)
(-0.108985 0.255655 1.25783)
(-0.145865 0.232836 1.24711)
(-0.175395 0.205704 1.23228)
(0.181899 0.212233 1.28117)
(0.149984 0.236717 1.29241)
(0.111407 0.257067 1.30027)
(0.0686153 0.271046 1.30531)
(0.0231776 0.278195 1.30776)
(-0.0231777 0.278195 1.30776)
(-0.0686155 0.271046 1.30531)
(-0.111407 0.257067 1.30027)
(-0.149984 0.236717 1.29241)
(-0.181899 0.212233 1.28117)
(0.180598 0.209539 1.31224)
(0.147624 0.229994 1.32038)
(0.109032 0.246721 1.32586)
(0.0668673 0.258157 1.32931)
(0.0225392 0.263986 1.33096)
(-0.0225394 0.263986 1.33096)
(-0.0668675 0.258157 1.32931)
(-0.109032 0.246721 1.32586)
(-0.147624 0.229994 1.32038)
(-0.180598 0.209539 1.31224)
(0.172949 0.199296 1.33131)
(0.140202 0.214789 1.33697)
(0.102965 0.227099 1.34061)
(0.0628766 0.235533 1.34284)
(0.0211491 0.239829 1.34389)
(-0.0211493 0.239829 1.34389)
(-0.0628768 0.235533 1.34284)
(-0.102965 0.227099 1.34061)
(-0.140202 0.214789 1.33697)
(-0.17295 0.199296 1.33131)
(0.160519 0.184311 1.3425)
(0.129262 0.192248 1.34633)
(0.0941533 0.199793 1.34861)
(0.0572064 0.204996 1.34993)
(0.0191947 0.207644 1.35053)
(-0.0191949 0.207644 1.35053)
(-0.0572066 0.204996 1.34993)
(-0.0941535 0.199793 1.34861)
(-0.129262 0.192248 1.34633)
(-0.160519 0.184311 1.3425)
(0.00112221 0.00125326 0.157603)
(0.00113334 0.00160042 0.165901)
(0.000883473 0.00200865 0.17283)
(0.000591389 0.00231102 0.177735)
(0.000206075 0.00247858 0.180274)
(-0.000206087 0.00247858 0.180274)
(-0.0005914 0.00231102 0.177735)
(-0.000883483 0.00200864 0.17283)
(-0.00113335 0.00160041 0.165901)
(-0.00112221 0.00125325 0.157603)
(0.0180227 0.0209132 0.441555)
(0.0162079 0.0255141 0.461755)
(0.0126851 0.0298437 0.478344)
(0.0081471 0.0330415 0.489987)
(0.00280733 0.0347593 0.49598)
(-0.00280737 0.0347593 0.49598)
(-0.00814714 0.0330415 0.489987)
(-0.0126851 0.0298436 0.478344)
(-0.0162079 0.0255141 0.461755)
(-0.0180227 0.0209132 0.441555)
(0.0410843 0.0478215 0.685102)
(0.0362861 0.0574541 0.712676)
(0.0281905 0.0662402 0.734961)
(0.0179578 0.0726648 0.750472)
(0.00616574 0.0760863 0.758415)
(-0.00616581 0.0760863 0.758415)
(-0.0179579 0.0726648 0.750472)
(-0.0281906 0.0662402 0.734961)
(-0.0362861 0.057454 0.712676)
(-0.0410844 0.0478214 0.685102)
(0.0659684 0.0768472 0.887709)
(0.057501 0.0910326 0.918888)
(0.0443429 0.103724 0.943667)
(0.0280664 0.112907 0.960768)
(0.00960734 0.117762 0.969483)
(-0.00960745 0.117762 0.969483)
(-0.0280665 0.112907 0.960768)
(-0.044343 0.103724 0.943667)
(-0.057501 0.0910325 0.918888)
(-0.0659685 0.0768472 0.887709)
(0.0882018 0.10263 1.05281)
(0.0760088 0.1199 1.08481)
(0.0582002 0.135125 1.10981)
(0.0366306 0.146034 1.12691)
(0.0125049 0.151764 1.13559)
(-0.012505 0.151764 1.13559)
(-0.0366307 0.146034 1.12691)
(-0.0582004 0.135125 1.10981)
(-0.0760089 0.1199 1.08481)
(-0.0882019 0.10263 1.05281)
(0.105541 0.122488 1.18529)
(0.089998 0.141092 1.21623)
(0.0684409 0.157268 1.23999)
(0.0428519 0.168757 1.25612)
(0.0145916 0.174756 1.26425)
(-0.0145918 0.174756 1.26425)
(-0.0428521 0.168757 1.25612)
(-0.068441 0.157268 1.23999)
(-0.0899982 0.141092 1.21623)
(-0.105541 0.122488 1.18529)
(0.117134 0.135454 1.29029)
(0.0988706 0.153704 1.31902)
(0.0746843 0.169336 1.34072)
(0.0465284 0.18035 1.35534)
(0.0158048 0.18607 1.36268)
(-0.015805 0.18607 1.36268)
(-0.0465286 0.18035 1.35534)
(-0.0746845 0.169336 1.34072)
(-0.0988708 0.153704 1.31902)
(-0.117134 0.135454 1.29029)
(0.122856 0.141413 1.37259)
(0.102658 0.157832 1.39851)
(0.0770313 0.171648 1.41781)
(0.0477575 0.18131 1.4307)
(0.0161833 0.186303 1.43715)
(-0.0161835 0.186303 1.43715)
(-0.0477577 0.181309 1.4307)
(-0.0770315 0.171648 1.41781)
(-0.102658 0.157832 1.39851)
(-0.122856 0.141413 1.37259)
(0.123104 0.140804 1.43627)
(0.101852 0.154211 1.45928)
(0.0758964 0.165165 1.47615)
(0.0468119 0.172792 1.48731)
(0.0158223 0.176717 1.49285)
(-0.0158226 0.176717 1.49285)
(-0.0468122 0.172792 1.48731)
(-0.0758967 0.165165 1.47615)
(-0.101852 0.154211 1.45928)
(-0.123104 0.140804 1.43627)
(0.118696 0.13544 1.4847)
(0.0972468 0.1435 1.50529)
(0.071751 0.15079 1.51982)
(0.0439805 0.15584 1.5293)
(0.01482 0.158424 1.53396)
(-0.0148203 0.158424 1.53396)
(-0.0439808 0.15584 1.5293)
(-0.0717512 0.15079 1.51982)
(-0.097247 0.1435 1.50529)
(-0.118696 0.13544 1.4847)
(0.000713526 0.000937056 0.137853)
(0.000557759 0.00117493 0.144658)
(0.000382007 0.00134364 0.150199)
(0.000236925 0.00144351 0.154089)
(7.93411e-05 0.0014935 0.156096)
(-7.93527e-05 0.0014935 0.156096)
(-0.000236936 0.00144351 0.154089)
(-0.000382017 0.00134364 0.150199)
(-0.000557769 0.00117493 0.144658)
(-0.000713534 0.00093705 0.137853)
(0.00704492 0.00842347 0.395304)
(0.00611781 0.0103827 0.413365)
(0.00470468 0.0120781 0.427987)
(0.00300166 0.0132953 0.438221)
(0.00103089 0.0139429 0.443488)
(-0.00103093 0.0139429 0.443488)
(-0.00300169 0.0132953 0.438221)
(-0.00470472 0.0120781 0.427987)
(-0.00611784 0.0103827 0.413365)
(-0.00704495 0.00842345 0.395304)
(0.0172792 0.0204019 0.628394)
(0.0150742 0.0248408 0.65506)
(0.0116667 0.0287367 0.676481)
(0.00743288 0.0315654 0.691411)
(0.00255263 0.0330702 0.699074)
(-0.0025527 0.0330702 0.699074)
(-0.00743295 0.0315654 0.691411)
(-0.0116668 0.0287367 0.676481)
(-0.0150743 0.0248408 0.65506)
(-0.0172793 0.0204018 0.628394)
(0.0296489 0.0348089 0.83521)
(0.0257812 0.041876 0.867799)
(0.0199276 0.0480779 0.893733)
(0.0126556 0.0525763 0.911719)
(0.00434014 0.0549621 0.920923)
(-0.00434025 0.0549621 0.920923)
(-0.0126557 0.0525763 0.911719)
(-0.0199277 0.0480779 0.893733)
(-0.0257813 0.041876 0.867799)
(-0.029649 0.0348088 0.83521)
(0.042102 0.0492088 1.01571)
(0.0363843 0.058453 1.0518)
(0.0280105 0.0665194 1.08022)
(0.0177186 0.0723411 1.09983)
(0.00606491 0.0754156 1.10983)
(-0.00606505 0.0754156 1.10983)
(-0.0177187 0.0723411 1.09983)
(-0.0280106 0.0665194 1.08022)
(-0.0363844 0.0584529 1.0518)
(-0.0421021 0.0492088 1.01571)
(0.0531464 0.0618426 1.17104)
(0.0455807 0.072465 1.20862)
(0.0349055 0.0816477 1.23787)
(0.0219837 0.0882313 1.25795)
(0.0075087 0.0916913 1.26815)
(-0.00750887 0.0916913 1.26815)
(-0.0219839 0.0882313 1.25795)
(-0.0349056 0.0816477 1.23787)
(-0.0455808 0.0724649 1.20862)
(-0.0531465 0.0618426 1.17104)
(0.0617953 0.0715689 1.30302)
(0.0525467 0.082615 1.34047)
(0.0399994 0.0920429 1.3693)
(0.0250753 0.0987522 1.38898)
(0.008545 0.10226 1.39895)
(-0.00854521 0.10226 1.39895)
(-0.0250755 0.0987521 1.38898)
(-0.0399996 0.0920429 1.3693)
(-0.0525469 0.0826149 1.34047)
(-0.0617954 0.0715688 1.30302)
(0.067456 0.0777042 1.41368)
(0.0568341 0.0881988 1.44982)
(0.0429853 0.0970095 1.47736)
(0.0268166 0.103229 1.49604)
(0.00911624 0.106464 1.50547)
(-0.00911648 0.106464 1.50547)
(-0.0268169 0.103229 1.49604)
(-0.0429855 0.0970095 1.47736)
(-0.0568343 0.0881988 1.44982)
(-0.0674561 0.0777042 1.41368)
(0.069932 0.0799842 1.50497)
(0.0583585 0.0890468 1.53915)
(0.0438245 0.0964418 1.56487)
(0.0271926 0.101624 1.58217)
(0.00921888 0.104305 1.59085)
(-0.00921914 0.104305 1.59085)
(-0.0271929 0.101624 1.58217)
(-0.0438248 0.0964418 1.56487)
(-0.0583587 0.0890468 1.53915)
(-0.0699322 0.0799842 1.50497)
(0.0694036 0.0791979 1.5786)
(0.0573097 0.0852216 1.61106)
(0.0425988 0.090457 1.63459)
(0.0262562 0.0940911 1.6502)
(0.0088719 0.0959564 1.65798)
(-0.00887217 0.0959564 1.65798)
(-0.0262565 0.0940911 1.6502)
(-0.0425991 0.090457 1.63459)
(-0.0573099 0.0852217 1.61106)
(-0.0694038 0.0791979 1.5786)
(0.000130566 0.000142801 0.12692)
(0.000120953 0.000187165 0.133259)
(8.93758e-05 0.000232618 0.138413)
(6.1144e-05 0.000264478 0.142036)
(2.11183e-05 0.000282543 0.143906)
(-2.11284e-05 0.000282542 0.143906)
(-6.11538e-05 0.000264476 0.142036)
(-8.93848e-05 0.000232615 0.138413)
(-0.000120962 0.00018716 0.133259)
(-0.000130573 0.000142795 0.12692)
(0.00251401 0.00290791 0.368087)
(0.00224869 0.00360497 0.38533)
(0.00176137 0.00424697 0.3993)
(0.00113841 0.00472465 0.409103)
(0.000393092 0.00498395 0.414154)
(-0.000393128 0.00498395 0.414154)
(-0.00113845 0.00472465 0.409103)
(-0.0017614 0.00424696 0.3993)
(-0.00224872 0.00360496 0.38533)
(-0.00251403 0.0029079 0.368087)
(0.00684846 0.00794471 0.591696)
(0.00608469 0.00973959 0.617873)
(0.00476943 0.0113696 0.638966)
(0.00306507 0.0125823 0.653726)
(0.00105677 0.0132359 0.66132)
(-0.00105684 0.0132359 0.66132)
(-0.00306513 0.0125823 0.653726)
(-0.00476949 0.0113696 0.638966)
(-0.00608474 0.00973957 0.617872)
(-0.0068485 0.00794469 0.591696)
(0.0125699 0.0145844 0.796248)
(0.0110951 0.0176847 0.829298)
(0.0086716 0.0204741 0.855747)
(0.00554912 0.022539 0.874191)
(0.00190991 0.0236463 0.88366)
(-0.00191001 0.0236463 0.88366)
(-0.00554921 0.0225389 0.874191)
(-0.00867169 0.0204741 0.855747)
(-0.0110951 0.0176847 0.829297)
(-0.0125699 0.0145843 0.796248)
(0.0188023 0.0217804 0.981004)
(0.0164765 0.0261003 1.01892)
(0.0128201 0.0299511 1.04901)
(0.00816932 0.0327827 1.06992)
(0.00280628 0.0342938 1.08063)
(-0.00280641 0.0342938 1.08063)
(-0.00816945 0.0327827 1.06992)
(-0.0128202 0.0299511 1.04901)
(-0.0164766 0.0261003 1.01892)
(-0.0188024 0.0217804 0.981004)
(0.0247752 0.0286183 1.14584)
(0.0215385 0.0338501 1.18675)
(0.0166682 0.0384638 1.21894)
(0.0105745 0.0418312 1.2412)
(0.00362476 0.043619 1.25258)
(-0.00362492 0.0436189 1.25258)
(-0.0105747 0.0418311 1.2412)
(-0.0166684 0.0384638 1.21894)
(-0.0215386 0.03385 1.18675)
(-0.0247753 0.0286183 1.14584)
(0.0298722 0.034376 1.29107)
(0.0257446 0.0400682 1.3333)
(0.0198018 0.0450228 1.36624)
(0.0125035 0.0486096 1.38892)
(0.00427607 0.0505037 1.40047)
(-0.00427626 0.0505037 1.40047)
(-0.0125037 0.0486096 1.38892)
(-0.019802 0.0450228 1.36624)
(-0.0257447 0.0400681 1.3333)
(-0.0298723 0.034376 1.29107)
(0.0336386 0.038521 1.41722)
(0.0287205 0.0441524 1.4594)
(0.0219435 0.0489754 1.49199)
(0.013786 0.0524348 1.51432)
(0.00470273 0.0542509 1.52566)
(-0.00470295 0.0542509 1.52566)
(-0.0137863 0.0524347 1.51432)
(-0.0219437 0.0489754 1.49199)
(-0.0287207 0.0441524 1.4594)
(-0.0336387 0.038521 1.41722)
(0.035829 0.0407463 1.52487)
(0.030285 0.0458044 1.56605)
(0.022961 0.0500136 1.59751)
(0.0143409 0.0530028 1.61889)
(0.00487749 0.054561 1.62968)
(-0.00487773 0.054561 1.62968)
(-0.0143411 0.0530028 1.61889)
(-0.0229612 0.0500136 1.59751)
(-0.0302852 0.0458044 1.56605)
(-0.0358292 0.0407463 1.52487)
(0.0364146 0.0413594 1.61441)
(0.0304036 0.0449346 1.65473)
(0.022794 0.0480276 1.68438)
(0.0141315 0.0501925 1.70425)
(0.0047885 0.0513099 1.71419)
(-0.00478875 0.0513099 1.71419)
(-0.0141317 0.0501926 1.70425)
(-0.0227942 0.0480276 1.68438)
(-0.0304039 0.0449346 1.65473)
(-0.0364148 0.0413594 1.61441)
(7.97027e-05 0.000107543 0.123952)
(5.5832e-05 0.00013642 0.130093)
(3.42492e-05 0.000153155 0.135053)
(2.09599e-05 0.000161433 0.138535)
(6.81113e-06 0.000165399 0.14033)
(-6.81942e-06 0.000165398 0.14033)
(-2.09681e-05 0.000161431 0.138535)
(-3.42565e-05 0.000153152 0.135053)
(-5.58389e-05 0.000136416 0.130093)
(-7.97084e-05 0.000107538 0.123952)
(0.00104082 0.00124287 0.359587)
(0.000894141 0.00154156 0.376386)
(0.000683868 0.00179297 0.389936)
(0.000436759 0.00197346 0.399436)
(0.000149922 0.00206999 0.404329)
(-0.000149952 0.00206999 0.404329)
(-0.000436788 0.00197346 0.399436)
(-0.000683895 0.00179296 0.389936)
(-0.000894165 0.00154154 0.376386)
(-0.00104084 0.00124286 0.359587)
(0.0028686 0.00337639 0.579278)
(0.00250542 0.00415309 0.605023)
(0.00194537 0.00483085 0.625718)
(0.00124473 0.00532837 0.640197)
(0.000428295 0.00559524 0.647646)
(-0.00042835 0.00559523 0.647646)
(-0.00124478 0.00532836 0.640197)
(-0.00194542 0.00483084 0.625717)
(-0.00250547 0.00415307 0.605023)
(-0.00286863 0.00337637 0.579278)
(0.00537736 0.00629015 0.7823)
(0.00470971 0.00766856 0.815238)
(0.00366817 0.00888349 0.841578)
(0.0023449 0.00977887 0.859963)
(0.000806791 0.0102586 0.869408)
(-0.000806872 0.0102586 0.869408)
(-0.00234497 0.00977887 0.859963)
(-0.00366824 0.00888347 0.841578)
(-0.00470978 0.00766854 0.815237)
(-0.00537742 0.00629013 0.7823)
(0.00824156 0.00959606 0.96816)
(0.00720203 0.0115786 1.00654)
(0.00560231 0.0133263 1.03704)
(0.00357288 0.0146117 1.05826)
(0.00122802 0.0152986 1.06915)
(-0.00122813 0.0152985 1.06915)
(-0.00357298 0.0146117 1.05826)
(-0.00560241 0.0133263 1.03704)
(-0.00720212 0.0115785 1.00654)
(-0.00824164 0.00959604 0.96816)
(0.0111294 0.0129013 1.13658)
(0.00967755 0.0153804 1.1787)
(0.00750165 0.0175542 1.21193)
(0.00476837 0.019145 1.23499)
(0.0016363 0.0199917 1.24679)
(-0.00163643 0.0199917 1.24679)
(-0.00476851 0.019145 1.23499)
(-0.00750178 0.0175542 1.21193)
(-0.00967766 0.0153804 1.1787)
(-0.0111295 0.0129013 1.13658)
(0.0137346 0.0158466 1.28748)
(0.0118619 0.0186286 1.33173)
(0.00914946 0.0210441 1.36639)
(0.00579235 0.0227999 1.39035)
(0.0019837 0.02373 1.40258)
(-0.00198386 0.02373 1.40258)
(-0.00579251 0.0227999 1.39035)
(-0.00914961 0.0210441 1.36639)
(-0.011862 0.0186285 1.33173)
(-0.0137347 0.0158466 1.28747)
(0.0157982 0.0181271 1.42082)
(0.0135334 0.0209625 1.46579)
(0.0103762 0.0233906 1.50073)
(0.0065382 0.0251402 1.52478)
(0.00223379 0.0260616 1.53702)
(-0.00223398 0.0260616 1.53702)
(-0.00653838 0.0251402 1.52478)
(-0.0103764 0.0233906 1.50073)
(-0.0135336 0.0209625 1.46578)
(-0.0157983 0.0181271 1.42082)
(0.0171494 0.0195294 1.53651)
(0.0145543 0.0221538 1.58117)
(0.0110766 0.0243417 1.61552)
(0.00693936 0.0259017 1.63896)
(0.00236386 0.0267171 1.65083)
(-0.00236406 0.0267171 1.65083)
(-0.00693956 0.0259017 1.63896)
(-0.0110768 0.0243417 1.61552)
(-0.0145545 0.0221538 1.58117)
(-0.0171495 0.0195294 1.53651)
(0.0177234 0.0201531 1.63426)
(0.0148567 0.0220907 1.67871)
(0.0111817 0.0237523 1.71161)
(0.00695296 0.0249188 1.73376)
(0.00235956 0.0255221 1.74488)
(-0.00235977 0.0255221 1.74488)
(-0.00695317 0.0249188 1.73376)
(-0.0111819 0.0237523 1.71161)
(-0.0148569 0.0220907 1.67871)
(-0.0177236 0.0201531 1.63426)
(1.22882e-05 1.51136e-05 0.122452)
(8.37442e-06 2.06506e-05 0.128525)
(4.70688e-06 2.42884e-05 0.133428)
(3.46795e-06 2.63761e-05 0.136871)
(1.16411e-06 2.75889e-05 0.138645)
(-1.17046e-06 2.75884e-05 0.138645)
(-3.47412e-06 2.63747e-05 0.136871)
(-4.71267e-06 2.42862e-05 0.133428)
(-8.37987e-06 2.06475e-05 0.128525)
(-1.22927e-05 1.511e-05 0.122452)
(0.00036204 0.000423027 0.35535)
(0.000316099 0.000528036 0.371977)
(0.000244857 0.00061965 0.385384)
(0.000158075 0.000687354 0.394785)
(5.45171e-05 0.000724147 0.399627)
(-5.45404e-05 0.000724146 0.399627)
(-0.000158097 0.00068735 0.394785)
(-0.000244878 0.000619644 0.385384)
(-0.000316118 0.000528027 0.371977)
(-0.000362056 0.000423017 0.35535)
(0.00108115 0.0012579 0.572945)
(0.000953667 0.00155587 0.598503)
(0.000746559 0.00182094 0.619045)
(0.000480638 0.00201893 0.633425)
(0.000165856 0.00212611 0.640826)
(-0.000165899 0.00212611 0.640825)
(-0.00048068 0.00201892 0.633425)
(-0.000746598 0.00182093 0.619045)
(-0.000953703 0.00155585 0.598503)
(-0.00108118 0.00125789 0.572945)
(0.00211992 0.00246001 0.77484)
(0.00187197 0.00301611 0.807697)
(0.00146807 0.00351312 0.833986)
(0.000943204 0.00388444 0.852352)
(0.000325305 0.00408489 0.861791)
(-0.00032537 0.00408489 0.861791)
(-0.000943266 0.00388444 0.852352)
(-0.00146813 0.0035131 0.833986)
(-0.00187203 0.00301609 0.807697)
(-0.00211996 0.00245999 0.77484)
(0.00335725 0.00388415 0.960714)
(0.00295682 0.00471472 0.999242)
(0.0023153 0.00545586 1.0299)
(0.00148363 0.00600769 1.05126)
(0.00051112 0.00630458 1.06223)
(-0.000511208 0.00630458 1.06223)
(-0.00148372 0.00600768 1.05126)
(-0.00231538 0.00545584 1.0299)
(-0.00295689 0.0047147 0.999242)
(-0.00335732 0.00388413 0.960713)
(0.00465573 0.00536711 1.13032)
(0.0040805 0.00643885 1.17292)
(0.00318412 0.00738962 1.20659)
(0.00203361 0.00809365 1.23)
(0.000699481 0.00847088 1.24199)
(-0.000699591 0.00847087 1.24199)
(-0.00203371 0.00809364 1.23)
(-0.00318422 0.00738961 1.20659)
(-0.0040806 0.00643884 1.17291)
(-0.00465581 0.00536709 1.13032)
(0.00587675 0.00674593 1.28344)
(0.00511686 0.00798196 1.32857)
(0.00397342 0.00906801 1.36401)
(0.00252754 0.00986645 1.38856)
(0.000867642 0.0102921 1.40111)
(-0.000867774 0.0102921 1.40111)
(-0.00252767 0.00986644 1.38856)
(-0.00397354 0.00906801 1.36401)
(-0.00511697 0.00798195 1.32857)
(-0.00587685 0.00674591 1.28344)
(0.00689371 0.00787121 1.41988)
(0.00595476 0.00916266 1.46612)
(0.00459624 0.0102821 1.50218)
(0.00290983 0.0110974 1.52705)
(0.000996447 0.0115294 1.53973)
(-0.000996598 0.0115294 1.53973)
(-0.00290997 0.0110974 1.52705)
(-0.00459638 0.0102821 1.50218)
(-0.00595489 0.00916265 1.46612)
(-0.00689382 0.0078712 1.41988)
(0.00761484 0.00862988 1.53924)
(0.00651579 0.00985442 1.58555)
(0.0049907 0.0108871 1.62131)
(0.00314056 0.01163 1.64577)
(0.00107213 0.0120203 1.65818)
(-0.0010723 0.0120203 1.65818)
(-0.00314072 0.01163 1.64577)
(-0.00499085 0.0108871 1.62131)
(-0.00651593 0.00985442 1.58555)
(-0.00761496 0.00862988 1.53924)
(0.00799343 0.00905464 1.6409)
(0.00674854 0.00999015 1.68738)
(0.00510885 0.0107909 1.72192)
(0.00318938 0.0113564 1.74522)
(0.00108442 0.0116501 1.75695)
(-0.0010846 0.0116501 1.75695)
(-0.00318955 0.0113564 1.74522)
(-0.00510901 0.0107909 1.72192)
(-0.00674869 0.00999016 1.68738)
(-0.00799356 0.00905464 1.6409)
(7.77305e-06 1.23578e-05 0.122055)
(3.2316e-06 1.61184e-05 0.128101)
(6.4546e-07 1.72364e-05 0.132977)
(1.60297e-07 1.72645e-05 0.1364)
(-2.69352e-08 1.71768e-05 0.138164)
(2.22777e-08 1.71765e-05 0.138164)
(-1.64837e-07 1.72635e-05 0.1364)
(-6.49727e-07 1.72348e-05 0.132977)
(-3.2357e-06 1.61161e-05 0.128101)
(-7.77641e-06 1.2355e-05 0.122055)
(0.000139284 0.000169234 0.354052)
(0.000115477 0.000211594 0.370601)
(8.65576e-05 0.000244953 0.383934)
(5.49211e-05 0.000268444 0.393281)
(1.87805e-05 0.000280939 0.398095)
(-1.87978e-05 0.000280938 0.398095)
(-5.49379e-05 0.000268441 0.393281)
(-8.65734e-05 0.000244949 0.383934)
(-0.000115492 0.000211588 0.370601)
(-0.000139297 0.000169226 0.354052)
(0.00041883 0.000495573 0.570861)
(0.000361715 0.000614841 0.59632)
(0.000279584 0.000716471 0.616771)
(0.000178821 0.000791118 0.631086)
(6.1516e-05 0.000831233 0.638452)
(-6.15484e-05 0.000831231 0.638452)
(-0.000178853 0.000791113 0.631086)
(-0.000279614 0.000716464 0.616771)
(-0.000361742 0.000614831 0.59632)
(-0.000418853 0.000495562 0.57086)
(0.000833482 0.000976029 0.772271)
(0.000728496 0.00120178 0.80506)
(0.00056807 0.0013991 0.831287)
(0.000364015 0.00154554 0.849611)
(0.0001254 0.00162439 0.85903)
(-0.000125449 0.00162439 0.85903)
(-0.000364063 0.00154554 0.849611)
(-0.000568115 0.00139909 0.831287)
(-0.000728537 0.00120177 0.80506)
(-0.000833518 0.000976015 0.772271)
(0.0013429 0.00156236 0.958083)
(0.00117695 0.00190622 0.996632)
(0.000919561 0.00220927 1.02731)
(0.000588882 0.00243444 1.04869)
(0.000202831 0.00255555 1.05967)
(-0.000202898 0.00255555 1.05967)
(-0.000588947 0.00243443 1.04869)
(-0.000919622 0.00220926 1.02731)
(-0.00117701 0.0019062 0.996632)
(-0.00134295 0.00156235 0.958083)
(0.00189487 0.0021927 1.1281)
(0.00165772 0.00264573 1.17086)
(0.00129329 0.00304481 1.20469)
(0.000826428 0.00334042 1.2282)
(0.000284357 0.00349896 1.24026)
(-0.000284441 0.00349896 1.24026)
(-0.00082651 0.00334042 1.2282)
(-0.00129336 0.00304481 1.20469)
(-0.0016578 0.00264572 1.17086)
(-0.00189493 0.00219268 1.1281)
(0.00243137 0.0027988 1.28212)
(0.00211715 0.00333213 1.32759)
(0.00164569 0.00379897 1.36332)
(0.00104814 0.00414274 1.38809)
(0.000360043 0.0043263 1.40077)
(-0.000360144 0.0043263 1.40077)
(-0.00104824 0.00414273 1.38809)
(-0.00164578 0.00379896 1.36332)
(-0.00211724 0.00333212 1.32759)
(-0.00243144 0.00279879 1.28212)
(0.00289522 0.00331299 1.41986)
(0.00250415 0.00388147 1.46663)
(0.00193623 0.00437347 1.50315)
(0.00122782 0.00473257 1.52837)
(0.000420815 0.00492318 1.54123)
(-0.000420932 0.00492318 1.54123)
(-0.00122793 0.00473257 1.52837)
(-0.00193633 0.00437347 1.50315)
(-0.00250425 0.00388147 1.46663)
(-0.00289531 0.00331298 1.41986)
(0.00324134 0.00367943 1.54083)
(0.00277922 0.00422934 1.58787)
(0.00213329 0.00469319 1.62424)
(0.0013449 0.00502755 1.64916)
(0.000459548 0.0052035 1.6618)
(-0.000459676 0.0052035 1.6618)
(-0.00134503 0.00502755 1.64916)
(-0.00213341 0.00469319 1.62424)
(-0.00277933 0.00422934 1.58787)
(-0.00324144 0.00367943 1.54083)
(0.00344295 0.00390553 1.64426)
(0.0029132 0.00433692 1.69166)
(0.00221062 0.00470457 1.72694)
(0.00138263 0.00496467 1.75078)
(0.000470538 0.00509989 1.76278)
(-0.000470675 0.00509989 1.76278)
(-0.00138277 0.00496467 1.75078)
(-0.00221074 0.00470458 1.72694)
(-0.00291332 0.00433692 1.69166)
(-0.00344306 0.00390554 1.64426)
(-4.17485e-07 2.13336e-07 0.121877)
(-1.45253e-06 7.07411e-07 0.127914)
(-1.64732e-06 5.3787e-07 0.132782)
(-1.07062e-06 2.27633e-07 0.136199)
(-3.87322e-07 5.1762e-08 0.137961)
(3.84067e-07 5.15247e-08 0.137961)
(1.06745e-06 2.26913e-07 0.136199)
(1.64431e-06 5.3671e-07 0.132782)
(1.44961e-06 7.05782e-07 0.127914)
(4.15097e-07 2.11347e-07 0.121877)
(3.95597e-05 4.75864e-05 0.353482)
(3.25401e-05 6.04492e-05 0.370003)
(2.43783e-05 7.06216e-05 0.38331)
(1.55748e-05 7.79357e-05 0.392639)
(5.33609e-06 8.18799e-05 0.397444)
(-5.34843e-06 8.18792e-05 0.397444)
(-1.55868e-05 7.79336e-05 0.392639)
(-2.43896e-05 7.06182e-05 0.38331)
(-3.25508e-05 6.04445e-05 0.370003)
(-3.95685e-05 4.75806e-05 0.353482)
(0.000135445 0.000158988 0.569933)
(0.000117321 0.000199348 0.595352)
(9.11211e-05 0.000234067 0.615767)
(5.85695e-05 0.000259965 0.630058)
(2.01909e-05 0.000273998 0.637413)
(-2.02142e-05 0.000273997 0.637413)
(-5.85921e-05 0.000259962 0.630058)
(-9.11423e-05 0.000234062 0.615767)
(-0.000117341 0.000199341 0.595352)
(-0.000135461 0.000158979 0.569933)
(0.000286609 0.00033342 0.77109)
(0.000251781 0.000414205 0.803845)
(0.000197421 0.000485467 0.830045)
(0.000127074 0.000539032 0.848351)
(4.38661e-05 0.000568073 0.857761)
(-4.39017e-05 0.000568072 0.857761)
(-0.000127108 0.000539028 0.848351)
(-0.000197453 0.000485461 0.830044)
(-0.000251811 0.000414196 0.803845)
(-0.000286635 0.00033341 0.771089)
(0.000480505 0.000555765 0.956807)
(0.000423655 0.000683607 0.995353)
(0.000332935 0.000797296 1.02603)
(0.000214149 0.000882746 1.04742)
(7.39141e-05 0.000928996 1.0584)
(-7.39627e-05 0.000928995 1.0584)
(-0.000214197 0.000882742 1.04742)
(-0.00033298 0.000797289 1.02603)
(-0.000423696 0.000683597 0.995353)
(-0.000480541 0.000555754 0.956807)
(0.000698249 0.000803602 1.12692)
(0.00061488 0.00097709 1.16974)
(0.000482595 0.00113131 1.20361)
(0.000309748 0.00124678 1.22717)
(0.000106803 0.00130908 1.23925)
(-0.000106864 0.00130908 1.23925)
(-0.000309808 0.00124677 1.22717)
(-0.000482652 0.0011313 1.20361)
(-0.000614933 0.000977082 1.16974)
(-0.000698295 0.000803591 1.12692)
(0.000917077 0.00105014 1.28124)
(0.00080413 0.00125943 1.32683)
(0.000628891 0.00144432 1.36268)
(0.000402307 0.00158187 1.38754)
(0.000138486 0.00165573 1.40026)
(-0.00013856 0.00165573 1.40026)
(-0.000402379 0.00158186 1.38754)
(-0.00062896 0.00144432 1.36268)
(-0.000804194 0.00125942 1.32683)
(-0.000917133 0.00105013 1.28124)
(0.00111324 0.00126729 1.41946)
(0.000969824 0.00149518 1.46644)
(0.000754431 0.00169425 1.50315)
(0.000480462 0.00184089 1.52851)
(0.000165007 0.00191913 1.54145)
(-0.000165093 0.00191913 1.54145)
(-0.000480546 0.00184089 1.52851)
(-0.000754511 0.00169424 1.50315)
(-0.000969898 0.00149518 1.46644)
(-0.00111331 0.00126729 1.41946)
(0.00126701 0.0014309 1.54106)
(0.0010941 0.00165582 1.5884)
(0.000844649 0.00184709 1.62502)
(0.000534626 0.00198599 1.65014)
(0.000183024 0.0020594 1.66288)
(-0.000183119 0.0020594 1.66288)
(-0.00053472 0.00198599 1.65014)
(-0.000844738 0.00184709 1.62502)
(-0.00109418 0.00165581 1.5884)
(-0.00126709 0.0014309 1.54106)
(0.0013652 0.00154262 1.64521)
(0.0011622 0.00172383 1.693)
(0.000886479 0.00187781 1.7286)
(0.000556401 0.00198725 1.75267)
(0.000189665 0.00204432 1.76479)
(-0.000189767 0.00204433 1.76479)
(-0.000556501 0.00198726 1.75267)
(-0.000886575 0.00187781 1.7286)
(-0.00116229 0.00172383 1.693)
(-0.00136528 0.00154262 1.64521)
(2.72684e-08 7.90143e-07 0.121848)
(-8.28809e-07 1.17607e-06 0.127883)
(-1.03666e-06 1.0089e-06 0.132747)
(-7.52373e-07 7.21325e-07 0.136162)
(-2.79647e-07 5.37794e-07 0.137922)
(2.77481e-07 5.37637e-07 0.137922)
(7.50255e-07 7.2084e-07 0.136162)
(1.03464e-06 1.00811e-06 0.132747)
(8.2688e-07 1.17496e-06 0.127883)
(-2.89003e-08 7.8882e-07 0.121848)
(1.13391e-05 1.48798e-05 0.353348)
(8.04144e-06 1.91532e-05 0.369857)
(5.37729e-06 2.18797e-05 0.383152)
(3.2281e-06 2.36106e-05 0.392473)
(1.06735e-06 2.44893e-05 0.397274)
(-1.07574e-06 2.44889e-05 0.397274)
(-3.23628e-06 2.36091e-05 0.392473)
(-5.38503e-06 2.18773e-05 0.383152)
(-8.04864e-06 1.91499e-05 0.369857)
(-1.13452e-05 1.48759e-05 0.353348)
(4.18272e-05 5.06312e-05 0.56968)