/*--------------------------------*- C++ -*----------------------------------*\
| =========                 |                                                 |
| \\      /  F ield         | OpenFOAM: The Open Source CFD Toolbox           |
|  \\    /   O peration     | Version:  2106                                  |
|   \\  /    A nd           | Website:  www.openfoam.com                      |
|    \\/     M anipulation  |                                                 |
\*---------------------------------------------------------------------------*/
FoamFile
{
    version     2.0;
    format      ascii;
    arch        "LSB;label=32;scalar=64";
    class       surfaceScalarField;
    location    "0.64";
    object      phi;
}
// * * * * * * * * * * * * * * * * * * * * * * * * * * * * * * * * * * * * * //

dimensions      [0 3 -1 0 0 0 0];

oriented        oriented;

internalField   nonuniform List<scalar> 
29100
(
0.00118986
0.151517
0.0815472
-3.97006e-10
0.00146418
0.15643
0.0896153
0.00125648
0.159873
0.0963551
0.000715572
0.162167
0.101179
-2.19201e-09
0.163318
0.103692
-0.000715577
0.163318
0.103692
-0.00125649
0.162167
0.101179
-0.00146419
0.159873
0.0963551
-0.00118987
0.15643
0.0896153
0.151517
0.0815472
-4.99482e-09
0.00238203
0.209772
0.156658
-7.52661e-10
0.00330872
0.214387
0.170287
0.00295108
0.217478
0.18143
0.00170716
0.219407
0.18931
-6.17226e-09
0.220352
0.193382
-0.00170717
0.220352
0.193382
-0.0029511
0.219407
0.18931
-0.00330873
0.217478
0.18143
-0.00238204
0.214387
0.170287
0.209772
0.156658
-1.27508e-08
0.00303834
0.220963
0.186107
-1.07842e-09
0.00429745
0.223904
0.201246
0.00385758
0.225819
0.213432
0.00223425
0.226863
0.221973
-9.96715e-09
0.227347
0.226363
-0.00223427
0.227347
0.226363
-0.0038576
0.226863
0.221973
-0.00429747
0.225819
0.213432
-0.00303836
0.223904
0.201246
0.220963
0.186107
-1.93903e-08
0.00346968
0.207613
0.193258
-1.35881e-09
0.0048407
0.208871
0.208535
0.00433609
0.209635
0.220677
0.00250691
0.209871
0.229128
-1.38933e-08
0.20994
0.233453
-0.00250694
0.20994
0.233453
-0.00433612
0.209871
0.229128
-0.00484073
0.209635
0.220677
-0.00346971
0.208871
0.208535
0.207613
0.193258
-2.52706e-08
0.0036999
0.182487
0.187844
-1.64081e-09
0.00509207
0.182451
0.202752
0.00454886
0.182342
0.214482
0.00262647
0.182003
0.222597
-1.81671e-08
0.181782
0.226737
-0.00262651
0.181782
0.226737
-0.0045489
0.182003
0.222597
-0.00509211
0.182342
0.214482
-0.00369993
0.182451
0.202752
0.182487
0.187844
-3.07519e-08
0.00378453
0.152922
0.175239
-1.94194e-09
0.00515712
0.152029
0.189625
0.00459738
0.15135
0.200853
0.00265296
0.150676
0.20858
-2.29723e-08
0.150292
0.212511
-0.00265301
0.150292
0.212511
-0.00459742
0.150676
0.20858
-0.00515717
0.15135
0.200853
-0.00378457
0.152029
0.189625
0.152922
0.175239
-3.59737e-08
0.00379159
0.123031
0.1586
-2.33874e-09
0.00513042
0.121654
0.172463
0.00456659
0.12066
0.183212
0.00263501
0.119841
0.190574
-2.84443e-08
0.119399
0.194311
-0.00263507
0.119399
0.194311
-0.00456664
0.119841
0.190574
-0.00513047
0.12066
0.183212
-0.00379164
0.121654
0.172463
0.123031
0.1586
-4.10358e-08
0.00375593
0.0950447
0.139772
-2.82921e-09
0.00507466
0.0934445
0.153168
0.00451677
0.0923343
0.163498
0.00260744
0.091518
0.170541
-3.46067e-08
0.0910957
0.174108
-0.00260751
0.0910957
0.174108
-0.00451683
0.091518
0.170541
-0.00507472
0.0923343
0.163498
-0.00375598
0.0934445
0.153168
0.0950446
0.139772
-4.5895e-08
0.00372289
0.0700845
0.119819
-3.11855e-09
0.00505483
0.0684281
0.132813
0.00450054
0.0673747
0.142784
0.00259727
0.0666775
0.149553
-4.12944e-08
0.0663324
0.152973
-0.00259735
0.0663324
0.152973
-0.00450062
0.0666775
0.149553
-0.0050549
0.0673746
0.142784
-0.00372295
0.068428
0.132813
0.0700845
0.119819
-5.03681e-08
0.00394363
0.0993494
-3.38665e-09
0.0484147
0.00524443
0.112002
0.0471052
0.00461253
0.12166
0.0462729
0.00264182
0.128189
0.0457691
-4.78946e-08
0.131479
0.0455221
-0.00264191
0.131479
0.0455221
-0.00461262
0.128189
0.0457691
-0.00524451
0.12166
0.0462729
-0.00394369
0.112002
0.0471051
0.0993494
-5.3464e-08
0.0484146
-0.000242214
0.03679
0.0449994
-5.32977e-10
-0.000244275
0.0399868
0.0496306
-0.000171704
0.0426882
0.0535943
-8.55092e-05
0.0446199
0.0564731
-3.66518e-09
0.0456193
0.0579868
8.55019e-05
0.0456193
0.0579868
0.000171697
0.0446199
0.0564731
0.000244267
0.0426882
0.0535943
0.000242206
0.0399868
0.0496306
0.03679
0.0449994
-7.76444e-09
6.50063e-05
0.0812514
0.112132
-9.82111e-10
0.000254616
0.0870798
0.123004
0.000304318
0.0919267
0.132142
0.00020386
0.0953226
0.138708
-1.12438e-08
0.097067
0.142139
-0.000203882
0.097067
0.142139
-0.00030434
0.0953226
0.138708
-0.000254638
0.0919267
0.132142
-6.50278e-05
0.0870798
0.123004
0.0812514
0.112132
-2.1349e-08
0.000618343
0.112941
0.153799
-1.49941e-09
0.00103929
0.119691
0.168214
0.00101689
0.12523
0.180151
0.000621479
0.129036
0.188655
-1.89818e-08
0.130976
0.193075
-0.000621517
0.130976
0.193075
-0.00101693
0.129036
0.188655
-0.00103933
0.12523
0.180151
-0.000618378
0.119691
0.168214
0.112941
0.153799
-3.3781e-08
0.00124129
0.129514
0.175443
-1.99589e-09
0.00188834
0.13594
0.191638
0.0017768
0.141147
0.204873
0.00106117
0.144649
0.214231
-2.70664e-08
0.146418
0.219073
-0.00106122
0.146418
0.219073
-0.00177685
0.14465
0.214231
-0.0018884
0.141147
0.204873
-0.00124133
0.13594
0.191638
0.129514
0.175443
-4.49435e-08
0.00185012
0.132728
0.18278
-2.5346e-09
0.00269469
0.138138
0.19971
0.0024903
0.142451
0.213382
0.00147104
0.145284
0.222982
-3.56599e-08
0.146697
0.227929
-0.00147111
0.146697
0.227929
-0.00249037
0.145284
0.222982
-0.00269476
0.142451
0.213382
-0.00185018
0.138138
0.19971
0.132728
0.18278
-5.50131e-08
0.00240058
0.125643
0.179925
-3.18161e-09
0.00341148
0.129763
0.196989
0.00312005
0.132972
0.210623
0.00183158
0.135019
0.220133
-4.48802e-08
0.136024
0.225016
-0.00183167
0.136024
0.225016
-0.00312013
0.135019
0.220133
-0.00341155
0.132972
0.210623
-0.00240065
0.129763
0.196989
0.125643
0.179925
-6.40039e-08
0.00286945
0.111507
0.169866
-4.15512e-09
0.00402228
0.114336
0.186737
0.00365755
0.116458
0.200091
0.00213984
0.117763
0.209348
-5.47085e-08
0.118391
0.214084
-0.00213995
0.118391
0.214084
-0.00365766
0.117763
0.209348
-0.00402238
0.116458
0.200091
-0.00286953
0.114336
0.186737
0.111507
0.169865
-7.19016e-08
0.00325094
0.0932601
0.154768
-5.46234e-09
0.00453696
0.0949284
0.17129
0.00411675
0.0961186
0.184257
0.00240476
0.0968211
0.193195
-6.48737e-08
0.0971532
0.197751
-0.00240489
0.0971532
0.197751
-0.00411687
0.0968211
0.193195
-0.00453706
0.0961186
0.184257
-0.00325103
0.0949284
0.17129
0.0932601
0.154768
-7.8573e-08
0.00358114
0.073313
0.136185
-6.95429e-09
0.00500518
0.0740162
0.152301
0.00453584
0.0745196
0.164852
0.00264538
0.0748126
0.173452
-7.46924e-08
0.074951
0.177821
-0.00264553
0.074951
0.177821
-0.00453597
0.0748126
0.173452
-0.0050053
0.0745196
0.164852
-0.00358124
0.0740162
0.152301
0.073313
0.136185
-8.40208e-08
0.00400867
0.11522
-8.24555e-09
0.0534337
0.00555254
0.130941
0.0535333
0.00499244
0.143077
0.0536629
0.00289548
0.151342
0.0537558
-8.25895e-08
0.155527
0.0537989
-0.00289564
0.155527
0.0537989
-0.00499259
0.151342
0.0537558
-0.00555267
0.143077
0.0536629
-0.00400878
0.130941
0.0535332
0.11522
-8.63123e-08
0.0534337
3.96187e-05
0.0100549
0.034905
-5.45443e-10
3.55628e-05
0.0110949
0.0385398
2.99454e-05
0.0119775
0.0416225
1.65892e-05
0.0126328
0.0438536
-3.93749e-09
0.0129781
0.0450253
-1.6597e-05
0.0129781
0.0450253
-2.99533e-05
0.0126328
0.0438536
-3.55708e-05
0.0119775
0.0416225
-3.96269e-05
0.0110949
0.0385398
0.0100549
0.034905
-8.26765e-09
0.000283264
0.0304815
0.0914221
-1.0953e-09
0.000384633
0.0332064
0.100791
0.00034372
0.0354867
0.108673
0.000200483
0.0371312
0.114353
-1.25171e-08
0.0379904
0.117327
-0.000200508
0.0379904
0.117327
-0.000343745
0.0371312
0.114353
-0.000384658
0.0354867
0.108673
-0.000283287
0.0332064
0.100791
0.0304815
0.0914221
-2.32461e-08
0.000604634
0.0514991
0.132177
-1.70039e-09
0.000857838
0.0555216
0.145646
0.0007771
0.0588432
0.156875
0.000455456
0.0611855
0.164922
-2.1534e-08
0.0623988
0.169122
-0.000455498
0.0623988
0.169122
-0.000777142
0.0611855
0.164922
-0.000857879
0.0588432
0.156875
-0.000604672
0.0555216
0.145646
0.0514991
0.132177
-3.7101e-08
0.000973779
0.0673775
0.158591
-2.33062e-09
0.00139734
0.0719758
0.17476
0.00127616
0.0757269
0.18811
0.00074942
0.0783204
0.197622
-3.09943e-08
0.0796516
0.202569
-0.000749481
0.0796516
0.202569
-0.00127622
0.0783204
0.197622
-0.00139739
0.0757269
0.18811
-0.000973831
0.0719758
0.17476
0.0673775
0.158591
-4.95711e-08
0.00136542
0.0761147
0.172677
-3.0417e-09
0.00195555
0.0806259
0.19047
0.00179042
0.084257
0.205017
0.00105169
0.0867194
0.215322
-4.09264e-08
0.0879707
0.220662
-0.00105177
0.0879707
0.220662
-0.0017905
0.0867194
0.215322
-0.00195562
0.084257
0.205017
-0.00136548
0.0806259
0.19047
0.0761147
0.172677
-6.0668e-08
0.00175903
0.0777347
0.176546
-3.91489e-09
0.00250224
0.0816898
0.195182
0.00228992
0.0848186
0.210274
0.00134435
0.0868975
0.220901
-5.12896e-08
0.0879423
0.226389
-0.00134445
0.0879423
0.226389
-0.00229002
0.0868975
0.220901
-0.00250232
0.0848186
0.210274
-0.00175911
0.0816898
0.195182
0.0777347
0.176546
-7.02527e-08
0.00213122
0.0733221
0.172147
-5.17612e-09
0.00301308
0.0764587
0.191086
0.00275467
0.0788824
0.206285
0.00161625
0.080459
0.216925
-6.18897e-08
0.0812424
0.2224
-0.00161638
0.0812424
0.2224
-0.00275478
0.0804591
0.216925
-0.00301318
0.0788824
0.206285
-0.00213131
0.0764587
0.191086
0.0733221
0.172147
-7.81607e-08
0.00246583
0.0644422
0.161182
-6.83607e-09
0.00347807
0.0666642
0.180072
0.00317813
0.0683379
0.195102
0.00186384
0.069407
0.205561
-7.22504e-08
0.0699333
0.210924
-0.00186398
0.0699333
0.210924
-0.00317826
0.069407
0.205561
-0.00347819
0.068338
0.195102
-0.00246593
0.0666642
0.180072
0.0644422
0.161182
-8.4153e-08
0.0027755
0.0527674
0.145085
-8.74249e-09
0.00391332
0.0541111
0.163717
0.00357023
0.0551173
0.178416
0.00209086
0.0557575
0.188581
-8.14694e-08
0.0560723
0.193773
-0.00209101
0.0560723
0.193773
-0.00357038
0.0557575
0.188581
-0.00391345
0.0551173
0.178416
-0.0027756
0.0541111
0.163717
0.0527674
0.145085
-8.81482e-08
0.00311923
0.125037
-1.03528e-08
0.0398314
0.0043633
0.143329
0.0404789
0.00395809
0.157601
0.0409977
0.00230857
0.167403
0.0413461
-8.77638e-08
0.17239
0.0415181
-0.00230874
0.17239
0.0415181
-0.00395824
0.167403
0.0413461
-0.00436343
0.157601
0.0409977
-0.00311933
0.143329
0.0404789
0.125037
-8.80113e-08
0.0398314
-3.18551e-05
0.00409974
0.0308371
-5.11094e-10
-4.54904e-05
0.00451452
0.0340389
-3.66892e-05
0.00486655
0.0367471
-2.02308e-05
0.00512828
0.0387089
-3.56321e-09
0.00526539
0.0397397
2.02237e-05
0.00526539
0.0397397
3.66821e-05
0.00512828
0.0387089
4.5483e-05
0.00486655
0.0367471
3.18476e-05
0.00451453
0.0340389
0.00409974
0.0308371
-7.45166e-09
9.96843e-06
0.0127255
0.0827864
-1.09262e-09
1.72321e-05
0.0139439
0.0913547
2.16577e-05
0.0149764
0.0985592
1.54756e-05
0.015729
0.103758
-1.15423e-08
0.0161236
0.106484
-1.54986e-05
0.0161236
0.106484
-2.16804e-05
0.015729
0.103758
-1.72538e-05
0.0149764
0.0985592
-9.98884e-06
0.0139439
0.0913547
0.0127255
0.0827864
-2.10836e-08
0.000123902
0.0226451
0.122134
-1.76669e-09
0.000187861
0.0246672
0.134859
0.000180391
0.0263696
0.145489
0.000109897
0.0275915
0.15313
-2.00619e-08
0.0282294
0.157126
-0.000109937
0.0282294
0.157126
-0.00018043
0.0275915
0.15313
-0.000187899
0.0263696
0.145489
-0.000123938
0.0246673
0.134859
0.0226451
0.122134
-3.41565e-08
0.000295238
0.0313868
0.149554
-2.46978e-09
0.000440156
0.0339607
0.165322
0.000414899
0.0361064
0.178399
0.000248747
0.0376239
0.187756
-2.90419e-08
0.0384112
0.192636
-0.000248804
0.0384112
0.192636
-0.000414955
0.0376239
0.187756
-0.000440209
0.0361064
0.178399
-0.000295287
0.0339607
0.165322
0.0313868
0.149554
-4.58544e-08
0.000508194
0.0374231
0.166133
-3.27117e-09
0.000746878
0.0402056
0.183986
0.000698552
0.0424954
0.198677
0.000416092
0.0440901
0.209138
-3.84041e-08
0.0449113
0.214578
-0.000416168
0.0449113
0.214578
-0.000698624
0.0440901
0.209138
-0.000746945
0.0424954
0.198677
-0.000508255
0.0402056
0.183986
0.0374231
0.166133
-5.61332e-08
0.000746616
0.0401021
0.17312
-4.24014e-09
0.00108381
0.0427706
0.192279
0.00100821
0.0449293
0.207915
0.000598229
0.0464082
0.218993
-4.80079e-08
0.0471632
0.224735
-0.000598323
0.0471632
0.224735
-0.0010083
0.0464083
0.218993
-0.00108389
0.0449293
0.207915
-0.000746687
0.0427706
0.192279
0.0401021
0.17312
-6.48299e-08
0.000993117
0.0394458
0.17181
-5.58592e-09
0.00142912
0.0417549
0.191666
0.00132451
0.0435822
0.207737
0.000783935
0.0448128
0.219061
-5.75724e-08
0.0454353
0.224912
-0.000784048
0.0454353
0.224912
-0.00132461
0.0448128
0.219061
-0.00142921
0.0435822
0.207737
-0.000993198
0.041755
0.191666
0.0394459
0.17181
-7.17406e-08
0.00123466
0.0359377
0.163456
-7.33961e-09
0.00176943
0.0377362
0.183556
0.0016357
0.0391261
0.199692
0.000966213
0.0400477
0.210996
-6.65768e-08
0.04051
0.216816
-0.000966343
0.04051
0.216816
-0.00163582
0.0400477
0.210996
-0.00176953
0.0391262
0.199692
-0.00123475
0.0377363
0.183556
0.0359377
0.163456
-7.66397e-08
0.00147546
0.0303256
0.149221
-9.3709e-09
0.00210725
0.0315625
0.169259
0.00194046
0.0325033
0.185206
0.001143
0.0331215
0.196304
-7.41462e-08
0.0334301
0.201996
-0.00114314
0.0334301
0.201996
-0.00194059
0.0331215
0.196304
-0.00210736
0.0325033
0.185205
-0.00147556
0.0315625
0.169259
0.0303256
0.149221
-7.94926e-08
0.00173064
0.130164
-1.10538e-08
0.0234682
0.00245347
0.149987
0.0241817
0.0022463
0.165569
0.0247433
0.00131751
0.176332
0.0251213
-7.86503e-08
0.181827
0.0253101
-0.00131766
0.181827
0.0253101
-0.00224644
0.176332
0.0251213
-0.00245359
0.165569
0.0247433
-0.00173073
0.149987
0.0241817
0.130163
-7.83268e-08
0.0234682
2.13683e-06
0.00133518
0.0294998
-4.3999e-10
-2.5934e-07
0.00148263
0.0325587
1.23459e-07
0.00161092
0.0351358
1.34926e-07
0.00170887
0.037
-2.9648e-09
0.00176111
0.0379787
-1.40866e-07
0.00176111
0.0379787
-1.29449e-07
0.00170887
0.037
2.53256e-07
0.00161093
0.0351358
-2.14284e-06
0.00148263
0.0325587
0.00133518
0.0294998
-6.26149e-09
3.09165e-05
0.00479149
0.0792992
-9.69611e-10
3.99101e-05
0.0052885
0.0875398
3.6721e-05
0.00571561
0.0944577
2.17679e-05
0.00603293
0.0994494
-9.68716e-09
0.00620106
0.102066
-2.17872e-05
0.00620107
0.102066
-3.67401e-05
0.00603293
0.0994494
-3.99289e-05
0.00571562
0.0944577
-3.09347e-05
0.0052885
0.0875398
0.00479149
0.0792992
-1.79584e-08
8.61606e-05
0.00924368
0.117595
-1.61811e-09
0.000122037
0.0101457
0.129966
0.000112591
0.0109141
0.1403
6.68092e-05
0.0114745
0.147735
-1.69143e-08
0.0117699
0.151624
-6.68427e-05
0.0117699
0.151624
-0.000112624
0.0114745
0.147735
-0.000122068
0.0109141
0.1403
-8.61905e-05
0.0101458
0.129966
0.00924369
0.117595
-2.88969e-08
0.000167618
0.0135806
0.14505
-2.31719e-09
0.000243279
0.0148171
0.160575
0.00022588
0.0158602
0.17347
0.000134119
0.0166098
0.182713
-2.45389e-08
0.0170023
0.187538
-0.000134168
0.0170023
0.187538
-0.000225927
0.0166098
0.182713
-0.000243324
0.0158602
0.17347
-0.000167658
0.0148171
0.160575
0.0135807
0.14505
-3.87704e-08
0.000272305
0.0169683
0.162473
-3.11252e-09
0.000396769
0.0183942
0.180285
0.000369176
0.0195831
0.194981
0.00021916
0.0204251
0.205473
-3.24451e-08
0.0208629
0.210936
-0.000219224
0.0208629
0.210936
-0.000369238
0.0204251
0.205473
-0.000396826
0.0195831
0.194981
-0.000272356
0.0183942
0.180285
0.0169683
0.162473
-4.74612e-08
0.000394819
0.0189089
0.170784
-4.05556e-09
0.000573469
0.0203574
0.190137
0.00053342
0.021547
0.205991
0.000316422
0.022377
0.217258
-4.04643e-08
0.0228051
0.223109
-0.000316501
0.0228051
0.223109
-0.000533495
0.022377
0.217258
-0.000573538
0.021547
0.205991
-0.000394879
0.0203574
0.190137
0.0189089
0.170784
-5.47633e-08
0.00052766
0.0192292
0.170962
-5.29934e-09
0.000763116
0.0205501
0.191238
0.000709008
0.0216148
0.207723
0.000420169
0.0223463
0.219381
-4.83169e-08
0.0227204
0.225417
-0.000420264
0.0227204
0.225417
-0.000709097
0.0223463
0.219381
-0.000763195
0.0216148
0.207723
-0.000527727
0.0205501
0.191238
0.0192292
0.170962
-6.04753e-08
0.00066408
0.0180256
0.163995
-6.85248e-09
0.00095761
0.019109
0.184704
0.000888198
0.0199646
0.201411
0.000525626
0.0205435
0.213161
-5.55431e-08
0.0208371
0.219225
-0.000525734
0.0208371
0.219225
-0.000888299
0.0205435
0.213161
-0.000957698
0.0199646
0.201411
-0.000664153
0.019109
0.184704
0.0180256
0.163995
-6.43993e-08
0.000804075
0.0155896
0.150853
-8.60729e-09
0.00115408
0.01638
0.171638
0.00106622
0.0169921
0.188266
0.000629315
0.017401
0.199884
-6.14229e-08
0.0176069
0.205855
-0.000629434
0.0176069
0.205855
-0.00106633
0.017401
0.199884
-0.00115418
0.0169921
0.188266
-0.000804151
0.01638
0.171638
0.0155896
0.150853
-6.65058e-08
0.000942642
0.132471
-1.00516e-08
0.0123392
0.00134503
0.153139
0.012826
0.00123789
0.169459
0.0132084
0.000728461
0.180775
0.0134677
-6.46794e-08
0.186564
0.0135983
-0.000728586
0.186564
0.0135983
-0.001238
0.180775
0.0134678
-0.00134513
0.169459
0.0132084
-0.000942719
0.153139
0.012826
0.132471
-6.52461e-08
0.0123392
-5.59957e-06
0.000579853
0.0289255
-3.58497e-10
-8.34887e-06
0.000637874
0.0319236
-6.63004e-06
0.00068699
0.0344471
-3.65829e-06
0.000724315
0.0362727
-2.33887e-09
0.000743934
0.0372311
3.6536e-06
0.000743934
0.0372311
6.62527e-06
0.000724315
0.0362727
8.34416e-06
0.00068699
0.0344471
5.59465e-06
0.000637875
0.0319236
0.000579854
0.0289255
-4.96366e-09
-1.0104e-06
0.00201964
0.0778604
-8.47034e-10
-2.14822e-06
0.00222485
0.085954
-8.58193e-07
0.00239975
0.0927436
3.32279e-08
0.00252979
0.097643
-7.65298e-09
0.00259869
0.100211
-4.84792e-08
0.00259869
0.100211
8.4317e-07
0.00252979
0.097643
2.13246e-06
0.00239975
0.0927436
9.96037e-07
0.00222485
0.085954
0.00201964
0.0778604
-1.41962e-08
1.73963e-05
0.00392741
0.11567
-1.41418e-09
2.57047e-05
0.00431891
0.127863
2.52082e-05
0.00465263
0.138048
1.5579e-05
0.0048975
0.145376
-1.33851e-08
0.00502692
0.149212
-1.56056e-05
0.00502692
0.149212
-2.52342e-05
0.00489751
0.145376
-2.57295e-05
0.00465264
0.138048
-1.74197e-05
0.00431892
0.127863
0.00392741
0.11567
-2.28844e-08
5.0261e-05
0.00588463
0.143042
-2.029e-09
7.47803e-05
0.00644803
0.158421
7.11676e-05
0.00692571
0.1712
4.29577e-05
0.00727194
0.180366
-1.9426e-08
0.00745407
0.185154
-4.29961e-05
0.00745407
0.185154
-7.12047e-05
0.00727195
0.180366
-7.48153e-05
0.00692572
0.1712
-5.02932e-05
0.00644804
0.158421
0.00588464
0.143042
-3.07714e-08
9.63531e-05
0.00752157
0.160739
-2.72397e-09
0.000142673
0.00820177
0.178485
0.000134696
0.00877307
0.193142
8.07344e-05
0.00918195
0.203617
-2.56576e-08
0.00939574
0.209076
-8.0785e-05
0.00939575
0.209076
-0.000134744
0.00918196
0.203617
-0.000142718
0.00877308
0.193142
-9.63934e-05
0.00820179
0.178485
0.00752159
0.160739
-3.77356e-08
0.000153533
0.00857471
0.169578
-3.52831e-09
0.000225771
0.00929599
0.188971
0.000212208
0.00989371
0.204884
0.00012674
0.0103157
0.216209
-3.19264e-08
0.0105349
0.222097
-0.000126803
0.0105349
0.222097
-0.000212267
0.0103158
0.216209
-0.000225825
0.00989372
0.204884
-0.00015358
0.009296
0.188971
0.00857472
0.169578
-4.36028e-08
0.000218575
0.0089091
0.170409
-4.54464e-09
0.000319494
0.00959427
0.190839
0.000299352
0.0101524
0.207485
0.000178351
0.0105408
0.219277
-3.8002e-08
0.0107408
0.22539
-0.000178425
0.0107408
0.22539
-0.000299421
0.0105408
0.219277
-0.000319556
0.0101524
0.207485
-0.000218629
0.00959429
0.190838
0.00890912
0.170409
-4.82128e-08
0.000288465
0.00851577
0.1641
-5.78451e-09
0.000419922
0.00910091
0.185066
0.000392214
0.00956843
0.202023
0.000233108
0.00988899
0.213972
-4.35293e-08
0.0100527
0.220146
-0.000233193
0.0100527
0.220146
-0.000392293
0.009889
0.213972
-0.000419992
0.00956844
0.202023
-0.000288523
0.00910092
0.185065
0.00851578
0.1641
-5.14123e-08
0.000363382
0.00749099
0.151515
-7.1774e-09
0.000525396
0.0079372
0.172639
0.000488028
0.00828639
0.189585
0.000289018
0.00852238
0.201449
-4.79752e-08
0.00864191
0.207555
-0.000289112
0.00864192
0.207555
-0.000488114
0.00852239
0.201449
-0.00052547
0.00828641
0.189585
-0.000363442
0.00793721
0.172639
0.007491
0.151515
-5.31821e-08
0.000438705
0.13351
-8.29585e-09
0.00601383
0.000630521
0.154582
0.0063026
0.000583404
0.171262
0.00653059
0.00034443
0.18285
0.00668613
-5.04328e-08
0.188786
0.0067648
-0.000344528
0.188786
0.0067648
-0.000583493
0.18285
0.00668613
-0.000630597
0.171262
0.00653059
-0.000438766
0.154582
0.00630261
0.13351
-5.24173e-08
0.00601384
-8.34125e-07
0.000186508
0.0287398
-2.72017e-10
-1.62872e-06
0.000206607
0.0317178
-1.19188e-06
0.000224117
0.0342225
-6.39495e-07
0.00023787
0.0360343
-1.77884e-09
0.00024521
0.0369853
6.35919e-07
0.00024521
0.0369853
1.18829e-06
0.00023787
0.0360343
1.62505e-06
0.000224117
0.0342225
8.30392e-07
0.000206607
0.0317177
0.000186509
0.0287398
-3.67179e-09
1.78616e-06
0.000729461
0.0773157
-6.8722e-10
1.86294e-06
0.000807811
0.0853527
2.01638e-06
0.000875716
0.0920919
1.32046e-06
0.000927115
0.0969545
-5.79445e-09
0.000954558
0.0995031
-1.332e-06
0.000954559
0.0995031
-2.0278e-06
0.000927117
0.0969544
-1.87393e-06
0.000875718
0.0920919
-1.79665e-06
0.000807813
0.0853527
0.000729464
0.0773156
-1.05526e-08
9.75851e-06
0.00150104
0.114889
-1.15551e-09
1.3657e-05
0.00165902
0.127008
1.29507e-05
0.00179526
0.137129
7.83971e-06
0.00189656
0.144412
-1.01363e-08
0.00195046
0.148224
-7.85983e-06
0.00195046
0.148224
-1.29704e-05
0.00189656
0.144412
-1.36759e-05
0.00179526
0.137129
-9.77623e-06
0.00165902
0.127008
0.00150104
0.114889
-1.71701e-08
2.37323e-05
0.00233519
0.142184
-1.65496e-09
3.45288e-05
0.00257244
0.157497
3.25014e-05
0.00277567
0.170222
1.94901e-05
0.00292474
0.179351
-1.47051e-08
0.00300368
0.18412
-1.95192e-05
0.00300368
0.18412
-3.25295e-05
0.00292475
0.179351
-3.45554e-05
0.00277568
0.170222
-2.37566e-05
0.00257244
0.157497
0.0023352
0.142184
-2.32338e-08
4.37775e-05
0.00307323
0.159958
-2.20839e-09
6.42412e-05
0.00337032
0.177666
6.03892e-05
0.00362243
0.192299
3.61059e-05
0.003805
0.202761
-1.94002e-08
0.00390108
0.208214
-3.61441e-05
0.00390109
0.208214
-6.04258e-05
0.003805
0.202761
-6.42752e-05
0.00362244
0.192299
-4.3808e-05
0.00337033
0.177666
0.00307324
0.159958
-2.86316e-08
6.93384e-05
0.00358975
0.168992
-2.8358e-09
0.000101732
0.00391518
0.188394
9.5519e-05
0.00418784
0.204325
5.70127e-05
0.00438268
0.21567
-2.40965e-08
0.0044845
0.221571
-5.706e-05
0.00448451
0.221571
-9.55638e-05
0.00438269
0.21567
-0.000101772
0.00418785
0.204325
-6.93744e-05
0.00391519
0.188394
0.00358976
0.168992
-3.32277e-08
9.92391e-05
0.00380833
0.170091
-3.59895e-09
0.000145232
0.00412674
0.190581
0.000136161
0.00438923
0.207292
8.11494e-05
0.00457414
0.21914
-2.86217e-08
0.00467001
0.225285
-8.12054e-05
0.00467001
0.225285
-0.000136214
0.00457415
0.21914
-0.00014528
0.00438924
0.207292
-9.92796e-05
0.00412675
0.190581
0.00380834
0.170091
-3.69068e-08
0.000132208
0.00370678
0.16407
-4.49588e-09
0.000192932
0.00398653
0.185145
0.000180436
0.00421285
0.202212
0.000107319
0.00436982
0.214249
-3.27246e-08
0.00445047
0.220473
-0.000107383
0.00445047
0.220473
-0.000180495
0.00436983
0.214249
-0.000192985
0.00421286
0.202212
-0.000132252
0.00398655
0.185145
0.00370679
0.16407
-3.95598e-08
0.000167995
0.0033133
0.15174
-5.47264e-09
0.000243445
0.0035331
0.173017
0.000226483
0.00370669
0.190108
0.000134265
0.00382507
0.202086
-3.60425e-08
0.00388532
0.208254
-0.000134335
0.00388532
0.208254
-0.000226548
0.00382507
0.202086
-0.000243501
0.0037067
0.190108
-0.000168041
0.00353311
0.173017
0.00331331
0.15174
-4.11716e-08
0.000202226
0.13392
-6.24449e-09
0.00270085
0.000292043
0.155178
0.00284693
0.00027116
0.172027
0.00296255
0.000160436
0.183744
0.00304181
-3.7982e-08
0.18975
0.00308206
-0.000160509
0.18975
0.00308206
-0.000271227
0.183744
0.00304181
-0.000292101
0.172027
0.00296255
-0.000202273
0.155178
0.00284694
0.13392
-4.10396e-08
0.00270085
-1.37479e-06
7.52694e-05
0.0286659
-1.90901e-10
-1.98055e-06
8.26254e-05
0.0316357
-1.59516e-06
8.89278e-05
0.0341332
-8.81854e-07
9.38381e-05
0.0359397
-1.31074e-09
9.64325e-05
0.0368879
8.79233e-07
9.64326e-05
0.0368879
1.59255e-06
9.38383e-05
0.0359397
1.97793e-06
8.89283e-05
0.0341332
1.37214e-06
8.26259e-05
0.0316357
7.52698e-05
0.0286659
-2.58571e-09
-1.6619e-06
0.000283716
0.0771089
-5.00745e-10
-2.50183e-06
0.000313382
0.0851228
-2.02115e-06
0.000339041
0.0918413
-1.08112e-06
0.000358508
0.0966888
-4.25135e-09
0.000368891
0.0992296
1.07266e-06
0.000368892
0.0992296
2.01284e-06
0.000358509
0.0966888
2.4937e-06
0.000339043
0.0918413
1.65394e-06
0.000313384
0.0851228
0.000283717
0.0771088
-7.52417e-09
7.19805e-07
0.000584852
0.114587
-8.42801e-10
9.02819e-07
0.00064703
0.126674
1.11002e-06
0.000700666
0.136767
7.9568e-07
0.000740756
0.14403
-7.42524e-09
0.000762139
0.147831
-8.10395e-07
0.000762139
0.147831
-1.12435e-06
0.000740758
0.14403
-9.16253e-07
0.000700668
0.136767
-7.31595e-07
0.000647033
0.126674
0.000584856
0.114587
-1.21509e-08
5.6981e-06
0.000921712
0.141842
-1.23167e-09
8.41044e-06
0.00101824
0.157123
8.15276e-06
0.00110118
0.169822
4.99404e-06
0.00116241
0.178933
-1.07612e-08
0.00119494
0.183692
-5.01531e-06
0.00119494
0.183692
-8.17329e-06
0.00116241
0.178933
-8.42978e-06
0.00110118
0.169822
-5.71586e-06
0.00101824
0.157123
0.000921718
0.141842
-1.6765e-08
1.35522e-05
0.00123229
0.159633
-1.65031e-09
2.00778e-05
0.00135692
0.177321
1.91092e-05
0.00146314
0.191938
1.15257e-05
0.00154061
0.20239
-1.41794e-08
0.00158154
0.207839
-1.15536e-05
0.00158154
0.207839
-1.91359e-05
0.00154061
0.20239
-2.01026e-05
0.00146314
0.191938
-1.35745e-05
0.00135692
0.177321
0.0012323
0.159633
-2.08641e-08
2.40399e-05
0.00146261
0.168738
-2.10964e-09
3.55401e-05
0.00160303
0.188136
3.3629e-05
0.0017213
0.204069
2.01774e-05
0.00180645
0.215418
-1.75856e-08
0.00185114
0.221321
-2.0212e-05
0.00185114
0.221321
-3.36618e-05
0.00180645
0.215418
-3.55701e-05
0.0017213
0.204069
-2.40663e-05
0.00160304
0.188136
0.00146262
0.168738
-2.43835e-08
3.67322e-05
0.00157543
0.169942
-2.645e-09
5.41326e-05
0.00171649
0.19045
5.10552e-05
0.00183348
0.207183
3.05437e-05
0.00191653
0.219051
-2.08597e-08
0.00195977
0.225207
-3.05846e-05
0.00195977
0.225207
-5.10937e-05
0.00191653
0.219051
-5.41673e-05
0.00183348
0.207183
-3.6762e-05
0.0017165
0.19045
0.00157544
0.169942
-2.72796e-08
5.11594e-05
0.00155484
0.164039
-3.25542e-09
7.51409e-05
0.00168196
0.185156
7.0618e-05
0.00178548
0.202264
4.21264e-05
0.00185781
0.214336
-2.38365e-08
0.00189513
0.220579
-4.21731e-05
0.00189513
0.220579
-7.06616e-05
0.00185782
0.214336
-7.51796e-05
0.00178548
0.202264
-5.11921e-05
0.00168197
0.185156
0.00155485
0.164039
-2.94807e-08
6.72983e-05
0.00140669
0.151821
-3.90735e-09
9.80101e-05
0.00150921
0.173159
9.15235e-05
0.00159068
0.19031
5.43813e-05
0.00164659
0.202335
-2.62887e-08
0.00167515
0.208529
-5.44325e-05
0.00167515
0.208529
-9.15709e-05
0.0016466
0.202335
-9.80517e-05
0.00159069
0.19031
-6.73329e-05
0.00150922
0.173159
0.0014067
0.151821
-3.0972e-08
8.30705e-05
0.134086
-4.41197e-09
0.00115809
0.000120585
0.155422
0.00122812
0.000112393
0.172342
0.00128378
6.66498e-05
0.184114
0.00132209
-2.78633e-08
0.19015
0.0013416
-6.67041e-05
0.19015
0.0013416
-0.000112443
0.184114
0.00132209
-0.000120628
0.172342
0.00128378
-8.31059e-05
0.155422
0.00122812
0.134085
-3.13501e-08
0.00115809
-3.9032e-07
1.90187e-05
0.0286473
-1.26788e-10
-6.02439e-07
2.10731e-05
0.0316149
-4.85548e-07
2.29583e-05
0.0341102
-2.70201e-07
2.45133e-05
0.035915
-9.40155e-10
2.53525e-05
0.0368623
2.68328e-07
2.53526e-05
0.0368623
4.83692e-07
2.45134e-05
0.035915
6.00598e-07
2.29585e-05
0.0341101
3.88489e-07
2.10735e-05
0.0316149
1.9019e-05
0.0286473
-1.7527e-09
-5.22999e-07
8.62151e-05
0.0770422
-3.46995e-10
-8.87872e-07
9.60046e-05
0.0850482
-7.47358e-07
0.00010474
0.0917594
-4.12235e-07
0.000111545
0.0966015
-3.03153e-09
0.000115219
0.0991393
4.06219e-07
0.000115219
0.0991393
7.41476e-07
0.000111545
0.0966015
8.82155e-07
0.00010474
0.0917594
5.17449e-07
9.6006e-05
0.0850482
8.62159e-05
0.0770422
-5.16392e-09
2.84002e-07
0.000192418
0.114481
-5.88916e-10
2.18975e-07
0.000214441
0.126556
2.50693e-07
0.000233806
0.136638
1.81792e-07
0.000248544
0.143893
-5.28637e-09
0.000256477
0.14769
-1.92246e-07
0.000256478
0.14769
-2.60852e-07
0.000248546
0.143893
-2.28379e-07
0.000233807
0.136638
-2.92206e-07
0.000214443
0.126556
0.00019242
0.11448
-8.40096e-09
2.10268e-06
0.00031811
0.141714
-8.64001e-10
2.94646e-06
0.000353889
0.156983
2.7999e-06
0.00038508
0.169671
1.69856e-06
0.000408448
0.178774
-7.6553e-09
0.000420959
0.18353
-1.71367e-06
0.000420959
0.18353
-2.81447e-06
0.00040845
0.178774
-2.96014e-06
0.000385083
0.16967
-2.11514e-06
0.000353892
0.156983
0.000318114
0.141714
-1.16925e-08
5.10459e-06
0.000440002
0.159506
-1.15586e-09
7.42019e-06
0.000487816
0.177185
7.00419e-06
0.000529078
0.191794
4.20628e-06
0.000559564
0.202242
-1.00749e-08
0.000575784
0.207689
-4.22613e-06
0.000575785
0.207689
-7.02317e-06
0.000559566
0.202242
-7.43779e-06
0.000529082
0.191794
-5.12036e-06
0.00048782
0.177185
0.000440007
0.159506
-1.46719e-08
9.24481e-06
0.000536133
0.168632
-1.46823e-09
1.35681e-05
0.000591548
0.188028
1.27944e-05
0.000638758
0.20396
7.66197e-06
0.000673156
0.215309
-1.24826e-08
0.000691325
0.221213
-7.68651e-06
0.000691326
0.221213
-1.28177e-05
0.000673158
0.215309
-1.35894e-05
0.000638762
0.20396
-9.26359e-06
0.000591552
0.188028
0.000536138
0.168632
-1.72867e-08
1.43876e-05
0.000589884
0.169874
-1.81767e-09
2.11638e-05
0.00064692
0.190388
1.99395e-05
0.000694741
0.207129
1.19208e-05
0.000729063
0.219003
-1.47991e-08
0.00074704
0.225163
-1.19498e-05
0.000747041
0.225163
-1.99669e-05
0.000729066
0.219003
-2.11885e-05
0.000694745
0.207129
-1.44091e-05
0.000646925
0.190388
0.00058989
0.169874
-1.95094e-08
2.03566e-05
0.000592554
0.164016
-2.20096e-09
2.99103e-05
0.000645112
0.185148
2.81113e-05
0.000688335
0.202272
1.67688e-05
0.000718827
0.214358
-1.69203e-08
0.000734635
0.220609
-1.6802e-05
0.000734636
0.220609
-2.81424e-05
0.000718829
0.214358
-2.99381e-05
0.000688339
0.202272
-2.03802e-05
0.000645117
0.185148
0.000592559
0.164016
-2.12901e-08
2.70796e-05
0.000544274
0.151842
-2.59886e-09
3.94749e-05
0.000587616
0.173205
3.68889e-05