/*--------------------------------*- C++ -*----------------------------------*\
| =========                 |                                                 |
| \\      /  F ield         | OpenFOAM: The Open Source CFD Toolbox           |
|  \\    /   O peration     | Version:  2106                                  |
|   \\  /    A nd           | Website:  www.openfoam.com                      |
|    \\/     M anipulation  |                                                 |
\*---------------------------------------------------------------------------*/
FoamFile
{
    version     2.0;
    format      ascii;
    arch        "LSB;label=32;scalar=64";
    class       volVectorField;
    location    "0.74";
    object      U;
}
// * * * * * * * * * * * * * * * * * * * * * * * * * * * * * * * * * * * * * //

dimensions      [0 1 -1 0 0 0 0];

internalField   nonuniform List<vector> 
10000
(
(0.0630475 0.0742913 0.347814)
(0.053772 0.0844895 0.362407)
(0.0401578 0.0937115 0.37386)
(0.0249124 0.100143 0.38177)
(0.00844269 0.103468 0.38579)
(-0.0084427 0.103468 0.38579)
(-0.0249124 0.100143 0.38177)
(-0.0401578 0.0937115 0.37386)
(-0.053772 0.0844895 0.362407)
(-0.0630475 0.0742912 0.347814)
(0.173388 0.205706 0.733527)
(0.146362 0.233158 0.753329)
(0.109268 0.257303 0.768081)
(0.0676042 0.274016 0.778055)
(0.0228838 0.282637 0.783042)
(-0.0228839 0.282637 0.783042)
(-0.0676042 0.274016 0.778055)
(-0.109268 0.257303 0.768081)
(-0.146362 0.233158 0.753329)
(-0.173388 0.205706 0.733527)
(0.224344 0.266389 0.930951)
(0.187255 0.298339 0.946899)
(0.138904 0.326239 0.958047)
(0.0855151 0.345325 0.965406)
(0.0288755 0.355105 0.969015)
(-0.0288755 0.355105 0.969015)
(-0.0855151 0.345325 0.965406)
(-0.138904 0.326239 0.958047)
(-0.187255 0.298339 0.946899)
(-0.224344 0.266389 0.930951)
(0.239469 0.28389 1.03083)
(0.19792 0.313994 1.04141)
(0.145908 0.340334 1.04813)
(0.0894111 0.358151 1.05242)
(0.0301226 0.367222 1.05447)
(-0.0301227 0.367222 1.05447)
(-0.0894112 0.358151 1.05242)
(-0.145908 0.340334 1.04813)
(-0.19792 0.313994 1.04141)
(-0.239469 0.28389 1.03083)
(0.237504 0.281061 1.07954)
(0.194683 0.307252 1.08554)
(0.142767 0.330308 1.08869)
(0.087135 0.345768 1.09058)
(0.0292992 0.353591 1.09144)
(-0.0292993 0.353591 1.09144)
(-0.0871351 0.345768 1.09058)
(-0.142767 0.330308 1.08869)
(-0.194683 0.307252 1.08554)
(-0.237504 0.281061 1.07954)
(0.226401 0.267434 1.10078)
(0.184177 0.288995 1.10338)
(0.134422 0.308128 1.10403)
(0.081739 0.320884 1.10428)
(0.0274364 0.327301 1.10433)
(-0.0274365 0.327301 1.10433)
(-0.0817392 0.320884 1.10428)
(-0.134422 0.308128 1.10403)
(-0.184177 0.288995 1.10338)
(-0.226401 0.267434 1.10078)
(0.20993 0.247345 1.10743)
(0.169484 0.264037 1.10771)
(0.123143 0.278995 1.10679)
(0.0746181 0.288949 1.10602)
(0.0250042 0.293935 1.10558)
(-0.0250043 0.293935 1.10558)
(-0.0746182 0.288949 1.10602)
(-0.123143 0.278995 1.10679)
(-0.169484 0.264036 1.10771)
(-0.20993 0.247345 1.10743)
(0.190439 0.223541 1.10673)
(0.152564 0.235407 1.10554)
(0.110381 0.246181 1.10373)
(0.0666671 0.253385 1.10241)
(0.0223045 0.256993 1.10171)
(-0.0223046 0.256993 1.10171)
(-0.0666672 0.253385 1.10241)
(-0.110382 0.246181 1.10373)
(-0.152564 0.235407 1.10554)
(-0.19044 0.223541 1.10673)
(0.169475 0.197823 1.10271)
(0.134799 0.205053 1.10063)
(0.097133 0.21177 1.0984)
(0.0584819 0.216392 1.09683)
(0.0195362 0.218728 1.09604)
(-0.0195364 0.218728 1.09604)
(-0.0584821 0.216392 1.09683)
(-0.0971332 0.21177 1.0984)
(-0.134799 0.205053 1.10063)
(-0.169475 0.197823 1.10271)
(0.148208 0.171855 1.09762)
(0.1174 0.172952 1.09507)
(0.0840099 0.176247 1.09269)
(0.0503942 0.178649 1.09109)
(0.0168046 0.179883 1.09028)
(-0.0168048 0.179883 1.09028)
(-0.0503944 0.178649 1.09109)
(-0.0840101 0.176247 1.09269)
(-0.1174 0.172952 1.09507)
(-0.148208 0.171855 1.09762)
(0.0112831 0.0144128 0.268636)
(0.00947927 0.0177293 0.280995)
(0.00715764 0.0203935 0.291116)
(0.00453098 0.0222198 0.298161)
(0.00155027 0.0231714 0.301767)
(-0.00155029 0.0231714 0.301767)
(-0.004531 0.0222198 0.298161)
(-0.00715766 0.0203934 0.291116)
(-0.00947929 0.0177293 0.280995)
(-0.0112831 0.0144128 0.268636)
(0.0548372 0.0663507 0.634499)
(0.0470879 0.0798283 0.656617)
(0.0360375 0.0913767 0.674355)
(0.022783 0.0995594 0.686553)
(0.00779651 0.103855 0.692745)
(-0.00779656 0.103855 0.692745)
(-0.022783 0.0995594 0.686553)
(-0.0360376 0.0913766 0.674355)
(-0.047088 0.0798282 0.656617)
(-0.0548372 0.0663507 0.634499)
(0.098531 0.117689 0.883403)
(0.0840637 0.139189 0.907411)
(0.0639971 0.157639 0.926243)
(0.0402168 0.17066 0.939037)
(0.0137217 0.177461 0.945479)
(-0.0137218 0.177461 0.945479)
(-0.0402169 0.17066 0.939037)
(-0.0639972 0.157639 0.926243)
(-0.0840638 0.139189 0.907411)
(-0.0985311 0.117689 0.883403)
(0.134877 0.159917 1.05247)
(0.114096 0.186244 1.07464)
(0.0863023 0.208729 1.0916)
(0.0539263 0.224484 1.10299)
(0.0183471 0.232667 1.10868)
(-0.0183472 0.232667 1.10868)
(-0.0539264 0.224484 1.10299)
(-0.0863024 0.208729 1.0916)
(-0.114096 0.186244 1.07464)
(-0.134877 0.159917 1.05247)
(0.160894 0.18968 1.16638)
(0.13494 0.217752 1.18513)
(0.101429 0.241567 1.19911)
(0.0630522 0.258134 1.20836)
(0.0213968 0.266691 1.21294)
(-0.021397 0.266691 1.21294)
(-0.0630524 0.258134 1.20836)
(-0.101429 0.241567 1.19911)
(-0.13494 0.217752 1.18513)
(-0.160894 0.18968 1.16638)
(0.176628 0.207154 1.24198)
(0.146884 0.234466 1.25691)
(0.109742 0.257436 1.2677)
(0.0678939 0.273308 1.27474)
(0.022985 0.281462 1.2782)
(-0.0229853 0.281462 1.2782)
(-0.0678942 0.273308 1.27474)
(-0.109742 0.257436 1.2677)
(-0.146884 0.234466 1.25691)
(-0.176628 0.207154 1.24198)
(0.18315 0.213696 1.2912)
(0.151007 0.238336 1.3025)
(0.112161 0.258814 1.3104)
(0.0690777 0.27288 1.31547)
(0.0233333 0.280072 1.31793)
(-0.0233336 0.280072 1.31793)
(-0.069078 0.27288 1.31547)
(-0.112161 0.258814 1.3104)
(-0.151007 0.238336 1.3025)
(-0.18315 0.213695 1.2912)
(0.181812 0.210951 1.32243)
(0.148606 0.23153 1.33061)
(0.109752 0.248355 1.33611)
(0.067306 0.259857 1.33957)
(0.0226866 0.26572 1.34123)
(-0.0226869 0.26572 1.34123)
(-0.0673064 0.259857 1.33957)
(-0.109752 0.248355 1.33611)
(-0.148606 0.231529 1.33061)
(-0.181812 0.210951 1.32243)
(0.174084 0.200608 1.34158)
(0.141112 0.216188 1.34725)
(0.103627 0.228566 1.35089)
(0.0632785 0.237045 1.35312)
(0.0212838 0.241363 1.35416)
(-0.0212841 0.241363 1.35416)
(-0.0632789 0.237045 1.35312)
(-0.103628 0.228565 1.35089)
(-0.141112 0.216188 1.34725)
(-0.174085 0.200608 1.34158)
(0.161548 0.185495 1.35278)
(0.130081 0.193469 1.3566)
(0.0947451 0.20105 1.35886)
(0.0575636 0.206279 1.36017)
(0.0193141 0.20894 1.36076)
(-0.0193145 0.20894 1.36076)
(-0.057564 0.206279 1.36017)
(-0.0947454 0.20105 1.35886)
(-0.130081 0.193469 1.3566)
(-0.161548 0.185495 1.35278)
(0.00113039 0.00126238 0.158912)
(0.00114168 0.0016121 0.167279)
(0.000889996 0.00202339 0.174265)
(0.000595746 0.00232806 0.179211)
(0.000207591 0.00249688 0.181771)
(-0.000207611 0.00249688 0.181771)
(-0.000595766 0.00232805 0.179211)
(-0.000890016 0.00202339 0.174265)
(-0.0011417 0.00161209 0.167279)
(-0.00113041 0.00126237 0.158912)
(0.018153 0.0210644 0.445197)
(0.016325 0.0256985 0.465562)
(0.0127767 0.0300593 0.482287)
(0.00820589 0.0332802 0.494025)
(0.00282757 0.0350105 0.500066)
(-0.00282763 0.0350105 0.500066)
(-0.00820595 0.0332802 0.494025)
(-0.0127767 0.0300593 0.482287)
(-0.0163251 0.0256984 0.465562)
(-0.018153 0.0210644 0.445197)
(0.0413754 0.0481605 0.690717)
(0.0365426 0.0578604 0.718513)
(0.0283894 0.066708 0.740975)
(0.0180843 0.0731775 0.75661)
(0.00620911 0.0766227 0.764617)
(-0.00620922 0.0766227 0.764617)
(-0.0180844 0.0731775 0.75661)
(-0.0283895 0.066708 0.740975)
(-0.0365427 0.0578604 0.718513)
(-0.0413755 0.0481604 0.690717)
(0.066426 0.0773808 0.894931)
(0.0578983 0.0916621 0.926353)
(0.0446482 0.104439 0.951324)
(0.0282592 0.113684 0.968558)
(0.0096732 0.118572 0.977339)
(-0.00967337 0.118572 0.977339)
(-0.0282593 0.113684 0.968558)
(-0.0446483 0.104439 0.951324)
(-0.0578984 0.091662 0.926353)
(-0.0664261 0.0773807 0.894931)
(0.0887997 0.103327 1.0613)
(0.0765212 0.120709 1.09354)
(0.0585906 0.136033 1.11872)
(0.0368753 0.147012 1.13595)
(0.0125882 0.152779 1.14469)
(-0.0125885 0.152779 1.14469)
(-0.0368755 0.147012 1.13595)
(-0.0585908 0.136033 1.11872)
(-0.0765213 0.120709 1.09354)
(-0.0887998 0.103327 1.0613)
(0.106239 0.1233 1.19475)
(0.0905888 0.14202 1.22591)
(0.0688873 0.158296 1.24983)
(0.04313 0.169855 1.26607)
(0.0146861 0.17589 1.27426)
(-0.0146863 0.17589 1.27426)
(-0.0431303 0.169855 1.26607)
(-0.0688875 0.158296 1.24983)
(-0.090589 0.14202 1.22591)
(-0.106239 0.1233 1.19475)
(0.117889 0.136328 1.30047)
(0.0995019 0.154687 1.32938)
(0.0751575 0.170411 1.35122)
(0.0468214 0.181489 1.36592)
(0.0159041 0.187241 1.37331)
(-0.0159044 0.187241 1.37331)
(-0.0468217 0.181489 1.36592)
(-0.0751578 0.170411 1.35122)
(-0.0995022 0.154687 1.32938)
(-0.117889 0.136328 1.30047)
(0.123626 0.142302 1.38328)
(0.103295 0.158814 1.40935)
(0.0775052 0.172706 1.42874)
(0.0480493 0.18242 1.4417)
(0.0162818 0.18744 1.44818)
(-0.0162822 0.18744 1.44818)
(-0.0480497 0.18242 1.4417)
(-0.0775055 0.172706 1.42874)
(-0.103296 0.158814 1.40935)
(-0.123627 0.142302 1.38328)
(0.123855 0.141666 1.44731)
(0.102467 0.155143 1.47042)
(0.0763501 0.166153 1.48736)
(0.0470898 0.173819 1.49856)
(0.0159159 0.177764 1.50413)
(-0.0159163 0.177764 1.50413)
(-0.0470902 0.173819 1.49856)
(-0.0763505 0.166153 1.48736)
(-0.102467 0.155143 1.47042)
(-0.123856 0.141666 1.44731)
(0.119402 0.136247 1.49595)
(0.0978186 0.144343 1.51661)
(0.072169 0.151667 1.53118)
(0.044235 0.15674 1.54069)
(0.0149054 0.159336 1.54536)
(-0.0149059 0.159336 1.54536)
(-0.0442354 0.15674 1.54069)
(-0.0721694 0.151667 1.53118)
(-0.097819 0.144343 1.51661)
(-0.119402 0.136247 1.49595)
(0.00071848 0.000943637 0.13903)
(0.000561572 0.00118319 0.145893)
(0.000384584 0.00135307 0.151481)
(0.000238495 0.00145361 0.155404)
(7.98606e-05 0.00150393 0.157428)
(-7.98794e-05 0.00150393 0.157428)
(-0.000238514 0.0014536 0.155404)
(-0.000384602 0.00135306 0.151481)
(-0.00056159 0.00118318 0.145893)
(-0.000718495 0.000943625 0.13903)
(0.00709067 0.00847849 0.398645)
(0.00615729 0.0104505 0.416858)
(0.0047349 0.0121569 0.431602)
(0.00302086 0.013382 0.441921)
(0.00103746 0.0140337 0.447231)
(-0.00103752 0.0140337 0.447231)
(-0.00302092 0.013382 0.441921)
(-0.00473496 0.0121569 0.431602)
(-0.00615735 0.0104505 0.416858)
(-0.00709072 0.00847846 0.398645)
(0.0173887 0.0205318 0.633658)
(0.0151692 0.0249986 0.660541)
(0.0117398 0.0289189 0.682135)
(0.0074793 0.0317651 0.697186)
(0.00256853 0.0332792 0.704911)
(-0.00256863 0.0332792 0.704911)
(-0.0074794 0.0317651 0.697186)
(-0.0117399 0.0289189 0.682135)
(-0.0151693 0.0249986 0.660541)
(-0.0173888 0.0205317 0.633658)
(0.0298322 0.035025 0.842131)
(0.0259394 0.0421349 0.874976)
(0.0200492 0.0483741 0.901112)
(0.0127325 0.0528993 0.919238)
(0.00436642 0.0552991 0.928512)
(-0.00436658 0.0552991 0.928512)
(-0.0127326 0.0528993 0.919238)
(-0.0200493 0.0483741 0.901112)
(-0.0259396 0.0421349 0.874976)
(-0.0298323 0.035025 0.842131)
(0.0423554 0.0495062 1.02402)
(0.0366012 0.0588039 1.06038)
(0.0281762 0.0669166 1.08901)
(0.0178228 0.0727712 1.10876)
(0.00610046 0.0758629 1.11883)
(-0.00610067 0.0758629 1.11883)
(-0.017823 0.0727712 1.10876)
(-0.0281764 0.0669165 1.08901)
(-0.0366014 0.0588038 1.06038)
(-0.0423555 0.0495061 1.02402)
(0.0534569 0.0622055 1.18049)
(0.0458439 0.0728864 1.21832)
(0.0351052 0.082119 1.24778)
(0.0221086 0.0887378 1.26799)
(0.00755118 0.0922161 1.27826)
(-0.00755144 0.0922161 1.27826)
(-0.0221089 0.0887378 1.26799)
(-0.0351054 0.082119 1.24778)
(-0.0458441 0.0728863 1.21832)
(-0.0534571 0.0622054 1.18049)
(0.0621451 0.0719759 1.31336)
(0.0528402 0.0830796 1.35105)
(0.0402204 0.0925558 1.38005)
(0.0252127 0.0992987 1.39985)
(0.00859159 0.102824 1.40988)
(-0.0085919 0.102824 1.40988)
(-0.025213 0.0992986 1.39985)
(-0.0402207 0.0925558 1.38005)
(-0.0528404 0.0830795 1.35104)
(-0.0621453 0.0719758 1.31336)
(0.0678255 0.0781321 1.4247)
(0.0571407 0.0886781 1.46104)
(0.0432144 0.0975309 1.48872)
(0.0269583 0.103779 1.5075)
(0.00916413 0.107029 1.51698)
(-0.00916449 0.107029 1.51698)
(-0.0269586 0.103779 1.5075)
(-0.0432147 0.0975308 1.48872)
(-0.057141 0.088678 1.46104)
(-0.0678258 0.078132 1.42469)
(0.0703026 0.0804105 1.51649)
(0.0586628 0.0895142 1.55082)
(0.0440501 0.0969418 1.57665)
(0.0273313 0.102147 1.59403)
(0.00926563 0.104839 1.60274)
(-0.00926602 0.104839 1.60274)
(-0.0273317 0.102147 1.59403)
(-0.0440504 0.0969418 1.57665)
(-0.0586631 0.0895142 1.55082)
(-0.0703029 0.0804104 1.51649)
(0.0697595 0.0796056 1.59045)
(0.0575993 0.0856533 1.62304)
(0.0428115 0.0909097 1.64665)
(0.0263861 0.0945581 1.66231)
(0.00891556 0.0964308 1.67011)
(-0.00891598 0.0964308 1.67011)
(-0.0263865 0.0945581 1.66231)
(-0.0428118 0.0909097 1.64665)
(-0.0575996 0.0856533 1.62304)
(-0.0697599 0.0796056 1.59045)
(0.000131196 0.000143477 0.128032)
(0.000121545 0.000188083 0.134427)
(8.98045e-05 0.000233798 0.139625)
(6.14297e-05 0.00026584 0.14328)
(2.12139e-05 0.000284005 0.145166)
(-2.12296e-05 0.000284004 0.145166)
(-6.14453e-05 0.000265837 0.14328)
(-8.98195e-05 0.000233792 0.139625)
(-0.00012156 0.000188074 0.134427)
(-0.000131209 0.000143467 0.128032)
(0.00252654 0.00292245 0.371271)
(0.00225986 0.00362304 0.388662)
(0.00177007 0.00426833 0.40275)
(0.001144 0.00474845 0.412636)
(0.000395011 0.00500906 0.417731)
(-0.000395063 0.00500905 0.417731)
(-0.00114405 0.00474844 0.412636)
(-0.00177012 0.00426831 0.40275)
(-0.0022599 0.00362302 0.388662)
(-0.00252658 0.00292243 0.371271)
(0.00688209 0.0079839 0.596756)
(0.00611437 0.00978754 0.623148)
(0.00479256 0.0114255 0.644415)
(0.00307984 0.0126441 0.659296)
(0.00106185 0.0133009 0.666951)
(-0.00106194 0.0133009 0.666951)
(-0.00307993 0.0126441 0.659295)
(-0.00479264 0.0114255 0.644415)
(-0.00611445 0.0097875 0.623148)
(-0.00688216 0.00798386 0.596756)
(0.0126302 0.0146547 0.802963)
(0.0111478 0.0177695 0.836274)
(0.00871248 0.0205719 0.86293)
(0.00557511 0.0226463 0.881518)
(0.00191881 0.0237587 0.89106)
(-0.00191895 0.0237587 0.89106)
(-0.00557524 0.0226463 0.881518)
(-0.0087126 0.0205719 0.86293)
(-0.0111479 0.0177695 0.836274)
(-0.0126303 0.0146546 0.802963)
(0.0188897 0.0218823 0.989146)
(0.0165522 0.0262213 1.02734)
(0.0128784 0.030089 1.05766)
(0.00820617 0.0329329 1.07872)
(0.00281887 0.0344504 1.0895)
(-0.00281905 0.0344504 1.0895)
(-0.00820634 0.0329328 1.07871)
(-0.0128786 0.030089 1.05766)
(-0.0165523 0.0262212 1.02734)
(-0.0188899 0.0218822 0.989146)
(0.0248863 0.0287474 1.15518)
(0.0216336 0.0340009 1.19637)
(0.0167409 0.0386336 1.22877)
(0.0106202 0.0420144 1.25118)
(0.00364032 0.0438093 1.26263)
(-0.00364054 0.0438093 1.26263)
(-0.0106204 0.0420144 1.25118)
(-0.0167411 0.0386335 1.22877)
(-0.0216338 0.0340008 1.19637)
(-0.0248865 0.0287474 1.15518)
(0.0300009 0.0345251 1.30137)
(0.0258535 0.0402391 1.34387)
(0.0198844 0.0452125 1.377)
(0.0125551 0.0488126 1.39982)
(0.00429357 0.0507135 1.41144)
(-0.00429383 0.0507135 1.41144)
(-0.0125553 0.0488125 1.39982)
(-0.0198846 0.0452125 1.377)
(-0.0258537 0.0402391 1.34387)
(-0.0300011 0.034525 1.30137)
(0.0337774 0.0386811 1.42829)
(0.0288367 0.0443324 1.47069)
(0.0220308 0.0491719 1.50346)
(0.0138402 0.0526429 1.5259)
(0.00472106 0.0544651 1.53729)
(-0.00472137 0.0544651 1.53729)
(-0.0138405 0.0526429 1.5259)
(-0.0220311 0.0491719 1.50346)
(-0.0288369 0.0443323 1.47069)
(-0.0337776 0.038681 1.42829)
(0.0359705 0.0409084 1.5365)
(0.030402 0.0459825 1.57787)
(0.0230482 0.0502047 1.60948)
(0.0143947 0.0532029 1.63094)
(0.00489564 0.0547656 1.64178)
(-0.00489598 0.0547656 1.64178)
(-0.014395 0.0532029 1.63094)
(-0.0230485 0.0502047 1.60948)
(-0.0304023 0.0459825 1.57787)
(-0.0359707 0.0409084 1.5365)
(0.0365521 0.0415162 1.62644)
(0.0305163 0.045101 1.66692)
(0.0228772 0.0482024 1.69667)
(0.0141825 0.0503732 1.7166)
(0.00480564 0.0514935 1.72658)
(-0.004806 0.0514935 1.72658)
(-0.0141828 0.0503732 1.7166)
(-0.0228775 0.0482024 1.69667)
(-0.0305166 0.045101 1.66692)
(-0.0365524 0.0415162 1.62644)
(7.99928e-05 0.000107984 0.125054)
(5.59875e-05 0.000136988 0.13125)
(3.4308e-05 0.000153779 0.136254)
(2.09749e-05 0.000162071 0.139767)
(6.81044e-06 0.000166036 0.141578)
(-6.82298e-06 0.000166035 0.141578)
(-2.09875e-05 0.000162068 0.139767)
(-3.43196e-05 0.000153774 0.136254)
(-5.59989e-05 0.000136981 0.13125)
(-8.0003e-05 0.000107976 0.125054)
(0.00104366 0.00124644 0.362745)
(0.000896411 0.00154601 0.379689)
(0.000685499 0.00179811 0.393356)
(0.000437746 0.00197906 0.402937)
(0.000150248 0.00207582 0.407872)
(-0.000150289 0.00207582 0.407872)
(-0.000437788 0.00197905 0.402937)
(-0.000685537 0.0017981 0.393356)
(-0.000896447 0.00154599 0.379689)
(-0.00104369 0.00124642 0.362745)
(0.0028763 0.00338576 0.584299)
(0.00251186 0.0041646 0.610259)
(0.00195019 0.00484415 0.631125)
(0.00124772 0.00534292 0.645724)
(0.000429305 0.00561045 0.653234)
(-0.000429379 0.00561045 0.653234)
(-0.00124779 0.00534291 0.645724)
(-0.00195026 0.00484413 0.631125)
(-0.00251192 0.00416458 0.610259)
(-0.00287635 0.00338572 0.584299)
(0.00539137 0.006307 0.788977)
(0.00472152 0.00768895 0.822175)
(0.00367709 0.00890688 0.848722)
(0.00235046 0.0098044 0.86725)
(0.000808677 0.0102853 0.876768)
(-0.000808785 0.0102853 0.876768)
(-0.00235057 0.00980438 0.86725)
(-0.00367719 0.00890686 0.848722)
(-0.00472161 0.00768892 0.822175)
(-0.00539146 0.00630695 0.788976)
(0.00826211 0.0096206 0.976272)
(0.0072193 0.0116077 1.01493)
(0.00561533 0.0133594 1.04565)
(0.00358099 0.0146476 1.06703)
(0.00123076 0.0153359 1.078)
(-0.0012309 0.0153359 1.078)
(-0.00358113 0.0146476 1.06703)
(-0.00561546 0.0133594 1.04565)
(-0.00721942 0.0116077 1.01493)
(-0.00826222 0.00962055 0.976272)
(0.0111557 0.0129325 1.14591)
(0.00969939 0.0154168 1.18831)
(0.00751801 0.0175949 1.22177)
(0.0047785 0.0191887 1.24497)
(0.00163972 0.0200369 1.25684)
(-0.00163989 0.0200369 1.25684)
(-0.00477868 0.0191887 1.24497)
(-0.00751817 0.0175948 1.22176)
(-0.00969954 0.0154168 1.18831)
(-0.0111558 0.0129324 1.14591)
(0.0137648 0.0158824 1.29779)
(0.0118867 0.0186694 1.34232)
(0.00916792 0.0210891 1.37718)
(0.0058037 0.0228477 1.40127)
(0.00198751 0.0237792 1.41357)
(-0.00198773 0.0237792 1.41357)
(-0.00580391 0.0228477 1.40127)
(-0.00916812 0.0210891 1.37718)
(-0.0118869 0.0186693 1.34232)
(-0.013765 0.0158823 1.29779)
(0.0158303 0.018165 1.43192)
(0.0135596 0.0210047 1.47713)
(0.0103954 0.0234363 1.51225)
(0.00654993 0.0251881 1.53641)
(0.00223772 0.0261107 1.54871)
(-0.00223796 0.0261107 1.54871)
(-0.00655017 0.0251881 1.53641)
(-0.0103956 0.0234363 1.51225)
(-0.0135598 0.0210047 1.47712)
(-0.0158305 0.0181649 1.43192)
(0.0171814 0.0195669 1.54821)
(0.0145801 0.0221944 1.59306)
(0.0110953 0.0243847 1.62755)
(0.00695075 0.0259462 1.65109)
(0.00236765 0.0267624 1.663)
(-0.00236792 0.0267624 1.663)
(-0.00695101 0.0259462 1.65109)
(-0.0110956 0.0243847 1.62755)
(-0.0145803 0.0221944 1.59306)
(-0.0171816 0.0195669 1.54821)
(0.0177537 0.020188 1.64638)
(0.0148809 0.0221272 1.69099)
(0.0111993 0.0237902 1.724)
(0.00696355 0.0249575 1.74621)
(0.00236308 0.0255613 1.75737)
(-0.00236336 0.0255613 1.75737)
(-0.00696382 0.0249575 1.74621)
(-0.0111995 0.0237902 1.724)
(-0.0148812 0.0221272 1.69098)
(-0.0177539 0.020188 1.64638)
(1.21959e-05 1.50097e-05 0.123553)
(8.27924e-06 2.05345e-05 0.129681)
(4.6226e-06 2.41579e-05 0.134628)
(3.40825e-06 2.62318e-05 0.138101)
(1.14163e-06 2.74357e-05 0.139892)
(-1.15109e-06 2.7435e-05 0.139892)
(-3.41761e-06 2.62296e-05 0.138101)
(-4.63163e-06 2.41544e-05 0.134628)
(-8.28804e-06 2.05294e-05 0.129681)
(-1.22036e-05 1.50034e-05 0.123553)
(0.00036143 0.000422354 0.358503)
(0.000315499 0.000527242 0.375276)
(0.000244349 0.000618738 0.388799)
(0.000157729 0.000686342 0.398281)
(5.4392e-05 0.000723077 0.403166)
(-5.44237e-05 0.000723075 0.403166)
(-0.00015776 0.000686336 0.398281)
(-0.000244379 0.000618728 0.388799)
(-0.000315527 0.000527228 0.375276)
(-0.000361455 0.000422337 0.358503)
(0.00107987 0.0012565 0.57796)
(0.00095242 0.0015542 0.603733)
(0.000745512 0.001819 0.624446)
(0.000479932 0.00201678 0.638945)
(0.000165603 0.00212385 0.646407)
(-0.000165659 0.00212384 0.646407)
(-0.000479987 0.00201677 0.638945)
(-0.000745565 0.00181899 0.624446)
(-0.00095247 0.00155418 0.603733)
(-0.00107991 0.00125648 0.57796)
(0.0021178 0.00245771 0.78151)
(0.00186991 0.0030133 0.814628)
(0.00146635 0.00350984 0.841124)
(0.000942044 0.00388079 0.859632)
(0.000324891 0.00408103 0.869145)
(-0.000324973 0.00408102 0.869145)
(-0.000942125 0.00388078 0.859632)
(-0.00146643 0.00350982 0.841124)
(-0.00186999 0.00301328 0.814628)
(-0.00211786 0.00245768 0.781509)
(0.00335405 0.00388067 0.96882)
(0.00295372 0.00471041 1.00763)
(0.00231271 0.00545079 1.03851)
(0.0014819 0.006002 1.06003)
(0.000510503 0.00629856 1.07107)
(-0.000510612 0.00629855 1.07107)
(-0.001482 0.00600199 1.06003)
(-0.00231281 0.00545077 1.03851)
(-0.00295382 0.00471039 1.00763)
(-0.00335413 0.00388063 0.96882)
(0.00465115 0.00536212 1.13964)
(0.0040761 0.00643263 1.18252)
(0.00318046 0.00738225 1.21642)
(0.00203116 0.00808538 1.23998)
(0.000698616 0.0084621 1.25205)
(-0.000698751 0.0084621 1.25205)
(-0.0020313 0.00808536 1.23998)
(-0.00318059 0.00738224 1.21642)
(-0.00407622 0.00643261 1.18252)
(-0.00465125 0.00536208 1.13964)
(0.00587051 0.00673911 1.29376)
(0.00511094 0.00797346 1.33916)
(0.00396854 0.00905797 1.3748)
(0.0025243 0.0098552 1.39948)
(0.000866501 0.0102802 1.4121)
(-0.000866662 0.0102802 1.4121)
(-0.00252446 0.00985519 1.39948)
(-0.00396869 0.00905795 1.3748)
(-0.00511108 0.00797344 1.33916)
(-0.00587063 0.00673908 1.29376)
(0.00688564 0.00786239 1.43098)
(0.00594724 0.00915177 1.47746)
(0.00459013 0.0102693 1.51369)
(0.00290581 0.0110832 1.53868)
(0.000995038 0.0115144 1.55142)
(-0.000995223 0.0115144 1.55142)
(-0.00290599 0.0110832 1.53868)
(-0.0045903 0.0102693 1.51369)
(-0.0059474 0.00915175 1.47746)
(-0.00688578 0.00786236 1.43098)
(0.00760501 0.00861913 1.55094)
(0.00650683 0.00984136 1.59745)
(0.00498354 0.010872 1.63334)
(0.00313592 0.0116134 1.6579)
(0.00107051 0.012003 1.67035)
(-0.00107072 0.012003 1.67035)
(-0.00313612 0.0116134 1.6579)
(-0.00498373 0.010872 1.63334)
(-0.006507 0.00984135 1.59745)
(-0.00760516 0.00861912 1.55094)
(0.00798218 0.00904201 1.65302)
(0.00673863 0.00997548 1.69965)
(0.00510113 0.0107745 1.7343)
(0.00318445 0.0113388 1.75767)
(0.00108271 0.0116318 1.76943)
(-0.00108293 0.0116318 1.76943)
(-0.00318466 0.0113388 1.75767)
(-0.00510133 0.0107745 1.7343)
(-0.00673882 0.00997548 1.69965)
(-0.00798235 0.00904201 1.65302)
(7.71495e-06 1.23074e-05 0.123159)
(3.16202e-06 1.60596e-05 0.12926)
(5.81836e-07 1.71613e-05 0.134179)
(1.12685e-07 1.71731e-05 0.137633)
(-4.50355e-08 1.70747e-05 0.139414)
(3.80908e-08 1.70742e-05 0.139414)
(-1.1951e-07 1.71715e-05 0.137633)
(-5.88391e-07 1.71587e-05 0.134179)
(-3.16847e-06 1.60559e-05 0.12926)
(-7.72044e-06 1.23028e-05 0.123159)
(0.000138284 0.000168124 0.357212)
(0.000114531 0.000210234 0.373908)
(8.57835e-05 0.00024335 0.387357)
(5.44053e-05 0.000266647 0.396785)
(1.85978e-05 0.000279032 0.401642)
(-1.8621e-05 0.000279031 0.401642)
(-5.4428e-05 0.000266642 0.396785)
(-8.58053e-05 0.000243343 0.387356)
(-0.000114551 0.000210224 0.373907)
(-0.000138301 0.000168111 0.357212)
(0.000416151 0.000492556 0.575886)
(0.000359242 0.00061115 0.60156)
(0.000277588 0.000712145 0.622182)
(0.00017751 0.000786298 0.636616)
(6.10561e-05 0.000826139 0.644044)
(-6.10973e-05 0.000826137 0.644044)
(-0.00017755 0.000786291 0.636616)
(-0.000277626 0.000712134 0.622182)
(-0.000359278 0.000611134 0.60156)
(-0.000416183 0.000492537 0.575885)
(0.000828498 0.000970386 0.778952)
(0.000723947 0.0011949 0.812003)
(0.000564419 0.00139107 0.838437)
(0.000361633 0.00153663 0.856903)
(0.000124568 0.00161499 0.866395)
(-0.000124628 0.00161499 0.866395)
(-0.000361692 0.00153662 0.856903)
(-0.000564475 0.00139106 0.838436)
(-0.000723999 0.00119488 0.812003)
(-0.000828544 0.000970363 0.778952)
(0.00133519 0.00155363 0.966202)
(0.00116997 0.00189561 1.00504)
(0.000913984 0.00219695 1.03593)
(0.000585259 0.00242081 1.05747)
(0.000201571 0.00254121 1.06852)
(-0.00020165 0.0025412 1.06852)
(-0.000585337 0.0024208 1.05747)
(-0.000914058 0.00219693 1.03593)
(-0.00117004 0.00189559 1.00504)
(-0.00133525 0.0015536 0.966202)
(0.00188423 0.00218066 1.13744)
(0.00164816 0.00263122 1.18048)
(0.00128568 0.00302805 1.21452)
(0.00082151 0.00332196 1.23819)
(0.00028265 0.00347957 1.25032)
(-0.000282749 0.00347957 1.25032)
(-0.000821607 0.00332195 1.23819)
(-0.00128578 0.00302804 1.21452)
(-0.00164825 0.0026312 1.18048)
(-0.00188431 0.00218064 1.13744)
(0.00241785 0.00278354 1.29245)
(0.00210509 0.0033139 1.33818)
(0.00163615 0.00377807 1.37411)
(0.001042 0.00411984 1.39902)
(0.000357917 0.00430233 1.41176)
(-0.000358036 0.00430233 1.41176)
(-0.00104212 0.00411984 1.39902)
(-0.00163626 0.00377806 1.37411)
(-0.00210519 0.00331388 1.33818)
(-0.00241794 0.00278352 1.29245)
(0.00287911 0.00329488 1.43097)
(0.00248991 0.00386011 1.47798)
(0.00192506 0.00434925 1.51467)
(0.00122067 0.00470622 1.54)
(0.000418347 0.00489569 1.55292)
(-0.000418484 0.00489569 1.55292)
(-0.0012208 0.00470622 1.54)
(-0.00192518 0.00434924 1.51467)
(-0.00249002 0.0038601 1.47798)
(-0.00287921 0.00329486 1.43097)
(0.00322318 0.00365913 1.55253)
(0.00276337 0.0042058 1.59976)
(0.00212099 0.00466688 1.63626)
(0.00133709 0.00499922 1.66127)
(0.000456861 0.00517411 1.67396)
(-0.000457012 0.00517411 1.67396)
(-0.00133723 0.00499922 1.66127)
(-0.00212113 0.00466687 1.63626)
(-0.0027635 0.00420579 1.59976)
(-0.00322329 0.00365912 1.55253)
(0.0034235 0.00388362 1.65637)
(0.00289656 0.0043124 1.70392)
(0.0021979 0.00467783 1.73931)
(0.00137464 0.00493636 1.76321)
(0.000467804 0.00507076 1.77524)
(-0.000467964 0.00507076 1.77524)
(-0.00137479 0.00493636 1.76321)
(-0.00219805 0.00467783 1.73931)
(-0.0028967 0.0043124 1.70392)
(-0.00342363 0.00388361 1.65636)
(-4.74273e-07 1.47792e-07 0.122983)
(-1.50424e-06 6.2759e-07 0.129075)
(-1.68874e-06 4.45925e-07 0.133987)
(-1.10016e-06 1.26326e-07 0.137436)
(-3.98381e-07 -5.53226e-08 0.139213)
(3.93441e-07 -5.56974e-08 0.139213)
(1.0953e-06 1.25199e-07 0.137436)
(1.68412e-06 4.441e-07 0.133987)
(1.49972e-06 6.25e-07 0.129075)
(4.70478e-07 1.44597e-07 0.122983)
(3.87642e-05 4.6671e-05 0.356649)
(3.18211e-05 5.93237e-05 0.373315)
(2.38058e-05 6.93075e-05 0.386739)
(1.51986e-05 7.64773e-05 0.39615)
(5.20373e-06 8.03413e-05 0.400997)
(-5.22026e-06 8.03402e-05 0.400997)
(-1.52147e-05 7.64741e-05 0.39615)
(-2.38211e-05 6.93024e-05 0.386739)
(-3.18358e-05 5.93165e-05 0.373315)
(-3.87766e-05 4.66621e-05 0.356649)
(0.000133277 0.000156496 0.574966)
(0.00011537 0.000196291 0.600601)
(8.95699e-05 0.0002305 0.621188)
(5.75595e-05 0.000256008 0.635598)
(1.98384e-05 0.000269828 0.643013)
(-1.98677e-05 0.000269827 0.643013)
(-5.75881e-05 0.000256003 0.635598)
(-8.9597e-05 0.000230492 0.621188)
(-0.000115395 0.00019628 0.600601)
(-0.000133299 0.000156483 0.574966)
(0.000282525 0.00032873 0.777781)
(0.000248117 0.000408475 0.810798)
(0.000194512 0.000478797 0.837204)
(0.000125188 0.000531648 0.855653)
(4.32105e-05 0.0005603 0.865137)
(-4.32534e-05 0.000560298 0.865137)
(-0.00012523 0.000531642 0.855653)
(-0.000194552 0.000478787 0.837204)
(-0.000248154 0.000408461 0.810798)
(-0.000282558 0.000328714 0.777781)
(0.000474141 0.000548472 0.964936)
(0.000417968 0.000674749 1.00377)
(0.000328432 0.000787026 1.03466)
(0.00021124 0.000871412 1.0562)
(7.2905e-05 0.000917084 1.06726)
(-7.29619e-05 0.000917082 1.06726)
(-0.000211296 0.000871405 1.0562)
(-0.000328485 0.000787015 1.03466)
(-0.000418017 0.000674733 1.00377)
(-0.000474185 0.000548454 0.964936)
(0.000689442 0.00079354 1.13627)
(0.00060705 0.000964967 1.17936)
(0.000476418 0.00111734 1.21345)
(0.000305771 0.00123142 1.23716)
(0.000105426 0.00129297 1.24931)
(-0.000105497 0.00129297 1.24931)
(-0.000305841 0.00123142 1.23716)
(-0.000476484 0.00111733 1.21345)
(-0.000607111 0.000964952 1.17936)
(-0.000689496 0.000793521 1.13627)
(0.000905884 0.0010374 1.29157)
(0.000794245 0.00124424 1.33743)
(0.000621132 0.00142696 1.37348)
(0.000397332 0.00156289 1.39847)
(0.000136768 0.00163588 1.41126)
(-0.000136853 0.00163588 1.41126)
(-0.000397414 0.00156288 1.39847)
(-0.00062121 0.00142695 1.37348)
(-0.000794318 0.00124423 1.33743)
(-0.000905948 0.00103738 1.29157)
(0.00109995 0.00125223 1.43057)
(0.000958181 0.00147747 1.47779)
(0.000745353 0.00167422 1.51466)
(0.000474672 0.00181916 1.54013)
(0.000163013 0.00189649 1.55313)
(-0.000163111 0.00189648 1.55313)
(-0.000474767 0.00181915 1.54013)
(-0.000745444 0.00167421 1.51466)
(-0.000958265 0.00147746 1.47779)
(-0.00110002 0.00125222 1.43057)
(0.0012521 0.00141411 1.55276)
(0.00108118 0.00163642 1.60028)
(0.00083467 0.00182548 1.63704)
(0.000528307 0.00196278 1.66224)
(0.000180856 0.00203533 1.67503)
(-0.000180964 0.00203533 1.67503)
(-0.000528413 0.00196277 1.66224)
(-0.00083477 0.00182547 1.63704)
(-0.00108127 0.00163641 1.60028)
(-0.00125218 0.0014141 1.55276)
(0.00134931 0.00152465 1.65731)
(0.00114866 0.00170378 1.70525)
(0.00087617 0.00185599 1.74095)
(0.000549935 0.00196418 1.76508)
(0.000187457 0.0020206 1.77723)
(-0.000187572 0.0020206 1.77723)
(-0.000550047 0.00196418 1.76508)
(-0.000876278 0.00185598 1.74095)
(-0.00114876 0.00170378 1.70525)
(-0.0013494 0.00152464 1.65731)
(4.47864e-09 7.64705e-07 0.122956)
(-8.49313e-07 1.14479e-06 0.129045)
(-1.05331e-06 9.72977e-07 0.133954)
(-7.6517e-07 6.81117e-07 0.1374)
(-2.84712e-07 4.94482e-07 0.139176)
(2.81283e-07 4.94244e-07 0.139176)
(7.61785e-07 6.80299e-07 0.1374)
(1.05024e-06 9.71703e-07 0.133954)
(8.4636e-07 1.1431e-06 0.129045)
(-7.04142e-09 7.62598e-07 0.122956)
(1.09094e-05 1.43862e-05 0.356518)
(7.65541e-06 1.85437e-05 0.373174)
(5.06998e-06 2.11673e-05 0.386585)
(3.02478e-06 2.28179e-05 0.395988)
(9.95324e-07 2.36509e-05 0.400831)
(-1.00678e-06 2.36503e-05 0.400831)
(-3.036e-06 2.28155e-05 0.395988)
(-5.08022e-06 2.11635e-05 0.386585)
(-7.66516e-06 1.8539e-05 0.373173)
(-1.09179e-05 1.43803e-05 0.356518)
(4.05995e-05 4.92197e-05 0.57472)