/*--------------------------------*- C++ -*----------------------------------*\
| =========                 |                                                 |
| \\      /  F ield         | OpenFOAM: The Open Source CFD Toolbox           |
|  \\    /   O peration     | Version:  2106                                  |
|   \\  /    A nd           | Website:  www.openfoam.com                      |
|    \\/     M anipulation  |                                                 |
\*---------------------------------------------------------------------------*/
FoamFile
{
    version     2.0;
    format      ascii;
    arch        "LSB;label=32;scalar=64";
    class       surfaceScalarField;
    location    "0.71";
    object      phi;
}
// * * * * * * * * * * * * * * * * * * * * * * * * * * * * * * * * * * * * * //

dimensions      [0 3 -1 0 0 0 0];

oriented        oriented;

internalField   nonuniform List<scalar> 
29100
(
0.00119006
0.151548
0.0815538
-3.23162e-10
0.00146441
0.156462
0.0896225
0.00125668
0.159907
0.0963628
0.000715684
0.162202
0.101187
-2.07192e-09
0.163353
0.1037
-0.000715688
0.163353
0.1037
-0.00125668
0.162202
0.101187
-0.00146441
0.159907
0.0963628
-0.00119006
0.156462
0.0896225
0.151548
0.0815538
-3.98912e-09
0.00238253
0.209826
0.15667
-6.15501e-10
0.00330941
0.214444
0.170299
0.00295171
0.217537
0.181443
0.00170753
0.219467
0.189324
-5.74187e-09
0.220413
0.193397
-0.00170754
0.220413
0.193397
-0.00295172
0.219467
0.189324
-0.00330942
0.217537
0.181443
-0.00238254
0.214444
0.170299
0.209826
0.15667
-1.039e-08
0.00303916
0.221036
0.18612
-8.98148e-10
0.00429863
0.22398
0.20126
0.00385866
0.225899
0.213447
0.00223489
0.226945
0.221989
-9.25403e-09
0.22743
0.226379
-0.0022349
0.22743
0.226379
-0.00385868
0.226945
0.221989
-0.00429865
0.225899
0.213447
-0.00303918
0.22398
0.20126
0.221036
0.18612
-1.6036e-08
0.00347089
0.207699
0.193273
-1.17802e-09
0.00484245
0.208962
0.208551
0.00433771
0.209731
0.220695
0.00250786
0.209969
0.229146
-1.28654e-08
0.21004
0.233471
-0.00250789
0.21004
0.233471
-0.00433773
0.209969
0.229146
-0.00484247
0.209731
0.220695
-0.00347091
0.208962
0.208551
0.207699
0.193273
-2.10862e-08
0.00370156
0.182582
0.18786
-1.46824e-09
0.00509447
0.182552
0.20277
0.00455108
0.182447
0.214502
0.00262779
0.182112
0.222619
-1.67354e-08
0.181893
0.226759
-0.00262782
0.181893
0.226759
-0.00455112
0.182112
0.222619
-0.0050945
0.182447
0.214502
-0.00370159
0.182552
0.20277
0.182582
0.18786
-2.57928e-08
0.00378669
0.153021
0.175258
-1.7837e-09
0.00516024
0.152133
0.189646
0.00460027
0.15146
0.200876
0.00265468
0.150789
0.208605
-2.09888e-08
0.150407
0.212538
-0.00265472
0.150407
0.212538
-0.00460031
0.150789
0.208605
-0.00516027
0.15146
0.200876
-0.00378672
0.152133
0.189646
0.153021
0.175258
-3.02503e-08
0.00379429
0.123128
0.158621
-2.16455e-09
0.00513431
0.121756
0.172487
0.00457021
0.120767
0.183239
0.00263716
0.119951
0.190604
-2.56846e-08
0.11951
0.194343
-0.00263721
0.11951
0.194343
-0.00457026
0.119951
0.190604
-0.00513435
0.120767
0.183239
-0.00379433
0.121756
0.172487
0.123128
0.158621
-3.45661e-08
0.00375921
0.0951331
0.139795
-2.60443e-09
0.00507939
0.0935378
0.153196
0.00452116
0.0924315
0.163529
0.00261004
0.0916179
0.170575
-3.07941e-08
0.091197
0.174144
-0.0026101
0.091197
0.174144
-0.00452121
0.0916179
0.170575
-0.00507944
0.0924315
0.163529
-0.00375925
0.0935378
0.153196
0.0951331
0.139795
-3.87289e-08
0.0037268
0.0701604
0.119844
-2.85753e-09
0.00506041
0.0685076
0.132843
0.0045057
0.0674572
0.142818
0.00260031
0.066762
0.14959
-3.61766e-08
0.0664179
0.153012
-0.00260038
0.0664179
0.153012
-0.00450576
0.066762
0.14959
-0.00506047
0.0674572
0.142818
-0.00372685
0.0685076
0.132843
0.0701604
0.119844
-4.26303e-08
0.00394819
0.099374
-2.98222e-09
0.0484746
0.00525085
0.112032
0.0471675
0.00461842
0.121695
0.0463371
0.00264528
0.128227
0.0458347
-4.14344e-08
0.131519
0.0455884
-0.00264537
0.131519
0.0455884
-0.0046185
0.128227
0.0458347
-0.00525092
0.121695
0.0463371
-0.00394824
0.112032
0.0471675
0.0993739
-4.52969e-08
0.0484746
-0.000242237
0.0368061
0.04499
-4.09358e-10
-0.000244299
0.0400044
0.0496202
-0.000171709
0.0427071
0.0535831
-8.55073e-05
0.0446399
0.0564613
-3.48388e-09
0.0456397
0.0579746
8.55003e-05
0.0456397
0.0579746
0.000171702
0.0446399
0.0564613
0.000244292
0.0427071
0.0535831
0.000242231
0.0400044
0.0496202
0.0368061
0.04499
-6.43586e-09
6.52814e-05
0.0812992
0.112112
-8.61595e-10
0.00025505
0.087132
0.122982
0.000304743
0.0919827
0.132118
0.00020412
0.0953814
0.138683
-1.05808e-08
0.0971272
0.142113
-0.000204141
0.0971272
0.142113
-0.000304763
0.0953814
0.138683
-0.00025507
0.0919827
0.132118
-6.53003e-05
0.0871321
0.122982
0.0812992
0.112112
-1.8176e-08
0.00061916
0.113025
0.153775
-1.31162e-09
0.00104054
0.119782
0.168189
0.00101807
0.125329
0.180124
0.000622187
0.129139
0.188627
-1.78444e-08
0.131082
0.193047
-0.000622222
0.131082
0.193047
-0.0010181
0.129139
0.188627
-0.00104057
0.125329
0.180124
-0.000619191
0.119782
0.168189
0.113025
0.153775
-2.90387e-08
0.00124285
0.129633
0.175422
-1.78735e-09
0.00189069
0.136069
0.191616
0.00177901
0.141284
0.204851
0.00106249
0.144793
0.214209
-2.53928e-08
0.146565
0.219051
-0.00106254
0.146565
0.219051
-0.00177906
0.144793
0.214209
-0.00189074
0.141284
0.204851
-0.00124289
0.136069
0.191616
0.129633
0.175422
-3.88766e-08
0.00185262
0.132873
0.182767
-2.30482e-09
0.0026984
0.138295
0.199699
0.00249379
0.142618
0.213373
0.00147312
0.145458
0.222974
-3.33227e-08
0.146875
0.227922
-0.00147318
0.146875
0.227922
-0.00249385
0.145458
0.222974
-0.00269846
0.142618
0.213373
-0.00185267
0.138295
0.199699
0.132873
0.182767
-4.77953e-08
0.00240416
0.125803
0.179924
-2.91476e-09
0.00341674
0.129937
0.196992
0.00312498
0.133156
0.21063
0.00183452
0.13521
0.220144
-4.16748e-08
0.136219
0.225028
-0.0018346
0.136219
0.225028
-0.00312506
0.13521
0.220144
-0.00341681
0.133156
0.21063
-0.00240422
0.129937
0.196992
0.125803
0.179924
-5.57781e-08
0.0028742
0.111671
0.169878
-3.77112e-09
0.00402923
0.114512
0.186757
0.00366404
0.116644
0.200117
0.0021437
0.117955
0.209379
-5.03585e-08
0.118587
0.214118
-0.0021438
0.118587
0.214118
-0.00366414
0.117955
0.209379
-0.00402931
0.116644
0.200117
-0.00287427
0.114512
0.186757
0.111671
0.169878
-6.28229e-08
0.00325692
0.0934154
0.154794
-4.92344e-09
0.00454565
0.095094
0.171325
0.00412484
0.0962925
0.184301
0.00240956
0.0970007
0.193245
-5.9083e-08
0.0973357
0.197805
-0.00240968
0.0973357
0.197805
-0.00412495
0.0970007
0.193245
-0.00454574
0.0962925
0.184301
-0.003257
0.095094
0.171325
0.0934154
0.154794
-6.88586e-08
0.0035884
0.073449
0.136222
-6.12956e-09
0.00501561
0.0741602
0.15235
0.00454549
0.0746698
0.164911
0.00265109
0.074967
0.173518
-6.72885e-08
0.0751076
0.177891
-0.00265122
0.0751076
0.177891
-0.00454561
0.074967
0.173518
-0.00501571
0.0746698
0.164911
-0.00358848
0.0741602
0.15235
0.073449
0.136222
-7.40144e-08
0.00401702
0.115263
-7.12594e-09
0.0535429
0.0055645
0.130997
0.0536476
0.00500348
0.143144
0.0537813
0.00290199
0.151418
0.0538771
-7.38726e-08
0.155608
0.0539216
-0.00290214
0.155608
0.0539216
-0.00500362
0.151418
0.0538771
-0.00556461
0.143144
0.0537813
-0.00401711
0.130997
0.0536476
0.115263
-7.69333e-08
0.0535429
3.96095e-05
0.0100674
0.034883
-4.27496e-10
3.55529e-05
0.0111087
0.0385156
2.9951e-05
0.0119924
0.0415963
1.65963e-05
0.0126485
0.0438261
-3.81697e-09
0.0129942
0.0449971
-1.66039e-05
0.0129942
0.0449971
-2.99585e-05
0.0126485
0.0438261
-3.55602e-05
0.0119924
0.0415963
-3.96166e-05
0.0111087
0.0385156
0.0100674
0.034883
-6.96723e-09
0.000283525
0.0305235
0.0913719
-9.61467e-10
0.000385035
0.0332526
0.100736
0.000344116
0.0355364
0.108615
0.000200726
0.0371836
0.114292
-1.19564e-08
0.0380441
0.117264
-0.00020075
0.0380441
0.117264
-0.000344139
0.0371836
0.114292
-0.000385057
0.0355364
0.108615
-0.000283546
0.0332526
0.100736
0.0305235
0.0913719
-2.01e-08
0.000605412
0.0515784
0.132115
-1.53945e-09
0.000859023
0.0556086
0.145579
0.00077823
0.0589367
0.156804
0.000456138
0.0612837
0.164849
-2.05226e-08
0.0624995
0.169048
-0.000456179
0.0624995
0.169048
-0.00077827
0.0612837
0.164849
-0.00085906
0.0589367
0.156804
-0.000605446
0.0556086
0.145579
0.0515784
0.132115
-3.24103e-08
0.000975308
0.0674937
0.158532
-2.14654e-09
0.00139965
0.0721031
0.174698
0.00127835
0.0758633
0.188045
0.000750735
0.0784634
0.197557
-2.94745e-08
0.079798
0.202503
-0.000750793
0.079798
0.202503
-0.0012784
0.0784634
0.197557
-0.0013997
0.0758633
0.188045
-0.000975356
0.0721031
0.174698
0.0674937
0.158532
-4.36307e-08
0.00136791
0.0762614
0.172631
-2.84089e-09
0.00195929
0.080786
0.190425
0.00179395
0.0844281
0.204973
0.0010538
0.0868983
0.215279
-3.87889e-08
0.0881536
0.22062
-0.00105388
0.0881536
0.22062
-0.00179402
0.0868983
0.215279
-0.00195936
0.0844281
0.204973
-0.00136797
0.080786
0.190424
0.0762615
0.172631
-5.3687e-08
0.00176268
0.077901
0.176521
-3.67939e-09
0.00250764
0.0818704
0.195162
0.002295
0.0850108
0.21026
0.00134738
0.087098
0.220892
-4.83624e-08
0.088147
0.226382
-0.00134748
0.088147
0.226382
-0.00229509
0.087098
0.220892
-0.00250772
0.0850108
0.21026
-0.00176275
0.0818704
0.195162
0.077901
0.176521
-6.2449e-08
0.00213614
0.0734948
0.172148
-4.80859e-09
0.00302031
0.0766451
0.191098
0.00276144
0.07908
0.206306
0.00162029
0.0806643
0.216954
-5.79472e-08
0.0814516
0.222434
-0.00162041
0.0814516
0.222434
-0.00276155
0.0806643
0.216954
-0.0030204
0.07908
0.206306
-0.00213622
0.0766451
0.191098
0.0734949
0.172148
-6.97937e-08
0.0024721
0.0646078
0.161209
-6.2451e-09
0.00348721
0.0668417
0.180114
0.00318666
0.068525
0.195157
0.00186891
0.0696006
0.205627
-6.70828e-08
0.0701302
0.210996
-0.00186904
0.0701302
0.210996
-0.00318678
0.0696006
0.205627
-0.00348732
0.068525
0.195157
-0.00247219
0.0668418
0.180114
0.0646078
0.161209
-7.5552e-08
0.00278317
0.0529138
0.145133
-7.71567e-09
0.00392439
0.0542668
0.163783
0.00358049
0.0552803
0.178499
0.00209693
0.0559254
0.188677
-7.50375e-08
0.0562426
0.193876
-0.00209707
0.0562426
0.193876
-0.00358062
0.0559254
0.188677
-0.0039245
0.0552803
0.178499
-0.00278326
0.0542668
0.163783
0.0529138
0.145133
-7.97772e-08
0.0031281
0.125099
-8.86876e-09
0.0399498
0.00437607
0.143413
0.0406034
0.00396991
0.157704
0.041127
0.00231556
0.167519
0.0414787
-8.06032e-08
0.172513
0.0416524
-0.00231572
0.172513
0.0416524
-0.00397005
0.167519
0.0414787
-0.00437619
0.157704
0.041127
-0.00312819
0.143413
0.0406034
0.125099
-8.09015e-08
0.0399498
-3.1863e-05
0.00410908
0.0308057
-4.04349e-10
-4.55001e-05
0.00452485
0.0340043
-3.66838e-05
0.00487767
0.0367098
-2.02237e-05
0.00514
0.0386696
-3.49216e-09
0.00527743
0.0396994
2.02168e-05
0.00527743
0.0396994
3.66769e-05
0.00514
0.0386696
4.54933e-05
0.00487767
0.0367098
3.18564e-05
0.00452485
0.0340043
0.00410908
0.0308057
-6.35211e-09
1.01571e-05
0.0127581
0.0827128
-9.66964e-10
1.75305e-05
0.0139798
0.0912741
2.19654e-05
0.0150151
0.0984729
1.56669e-05
0.0157698
0.103668
-1.11304e-08
0.0161655
0.106392
-1.5689e-05
0.0161655
0.106392
-2.19869e-05
0.0157698
0.103668
-1.75507e-05
0.0150151
0.0984729
-1.01755e-05
0.0139798
0.0912741
0.0127581
0.0827128
-1.84857e-08
0.000124515
0.0227081
0.12204
-1.60572e-09
0.000188802
0.0247367
0.134758
0.000181296
0.0264444
0.145382
0.000110446
0.0276702
0.153019
-1.93346e-08
0.0283103
0.157013
-0.000110485
0.0283103
0.157013
-0.000181333
0.0276703
0.153019
-0.000188837
0.0264444
0.145382
-0.000124548
0.0247368
0.134758
0.0227081
0.12204
-3.02874e-08
0.00029648
0.0314813
0.149462
-2.29069e-09
0.000442041
0.0340646
0.165224
0.000416694
0.0362182
0.178297
0.000249828
0.0377413
0.187653
-2.79686e-08
0.0385316
0.192532
-0.000249883
0.0385316
0.192532
-0.000416747
0.0377413
0.187653
-0.00044209
0.0362182
0.178297
-0.000296524
0.0340646
0.165224
0.0314813
0.149462
-4.09832e-08
0.000510266
0.0375446
0.166058
-3.07861e-09
0.000749989
0.0403386
0.183911
0.0007015
0.0426381
0.198602
0.000417861
0.0442397
0.209064
-3.69148e-08
0.0450643
0.214505
-0.000417934
0.0450644
0.214505
-0.000701569
0.0442397
0.209064
-0.000750052
0.0426381
0.198602
-0.000510321
0.0403386
0.183911
0.0375446
0.166058
-5.04745e-08
0.000749691
0.0402419
0.173074
-4.01101e-09
0.00108838
0.042923
0.192239
0.00101253
0.045092
0.207882
0.00060081
0.0465783
0.218965
-4.59805e-08
0.047337
0.224711
-0.0006009
0.047337
0.224711
-0.00101261
0.0465783
0.218965
-0.00108846
0.045092
0.207882
-0.000749756
0.042923
0.192239
0.0402419
0.173074
-5.86088e-08
0.000997322
0.0395928
0.1718
-5.22324e-09
0.00143532
0.0419141
0.191668
0.00133033
0.0437514
0.207752
0.00078741
0.044989
0.219086
-5.48491e-08
0.0456151
0.224943
-0.000787517
0.0456151
0.224943
-0.00133043
0.044989
0.219086
-0.0014354
0.0437514
0.207752
-0.000997397
0.0419142
0.191668
0.0395928
0.1718
-6.52284e-08
0.00124007
0.0360799
0.163482
-6.74453e-09
0.00177734
0.0378893
0.183601
0.0016431
0.0392879
0.199755
0.000970616
0.0402154
0.211073
-6.30247e-08
0.0406808
0.216901
-0.000970739
0.0406808
0.216901
-0.00164321
0.0402154
0.211073
-0.00177744
0.0392879
0.199755
-0.00124015
0.0378893
0.183601
0.0360799
0.163482
-7.01608e-08
0.00148214
0.0304524
0.149278
-8.33102e-09
0.0021169
0.0316978
0.16934
0.00194942
0.0326454
0.185309
0.00114831
0.0332681
0.196425
-6.97878e-08
0.033579
0.202126
-0.00114844
0.033579
0.202126
-0.00194955
0.0332681
0.196425
-0.00211701
0.0326454
0.185309
-0.00148223
0.0316979
0.16934
0.0304524
0.149278
-7.34808e-08
0.00173839
0.130241
-9.5756e-09
0.0235715
0.00246466
0.150094
0.0242906
0.00225668
0.1657
0.0248567
0.00132365
0.176483
0.0252378
-7.40191e-08
0.181988
0.0254282
-0.00132379
0.181988
0.0254282
-0.00225681
0.176483
0.0252378
-0.00246477
0.1657
0.0248567
-0.00173847
0.150094
0.0242906
0.130241
-7.37046e-08
0.0235715
2.12505e-06
0.00134185
0.0294618
-3.56141e-10
-2.73723e-07
0.00148999
0.0325168
1.22064e-07
0.00161885
0.0350906
1.37544e-07
0.00171723
0.0369524
-2.91984e-09
0.00176969
0.0379299
-1.43386e-07
0.00176969
0.0379299
-1.27819e-07
0.00171723
0.0369524
2.68078e-07
0.00161885
0.0350906
-2.1304e-06
0.00148999
0.0325167
0.00134185
0.0294618
-5.39414e-09
3.10403e-05
0.004815
0.0792086
-8.75521e-10
4.01077e-05
0.00531445
0.0874406
3.69261e-05
0.00574361
0.0943513
2.1897e-05
0.00606243
0.099338
-9.40923e-09
0.00623137
0.101952
-2.19158e-05
0.00623137
0.101952
-3.69444e-05
0.00606244
0.0993379
-4.01252e-05
0.00574361
0.0943513
-3.10569e-05
0.00531445
0.0874405
0.004815
0.0792086
-1.59276e-08
8.65834e-05
0.00928974
0.117479
-1.49152e-09
0.00012269
0.0101965
0.12984
0.000113226
0.0109688
0.140166
6.71964e-05
0.0115322
0.147596
-1.64557e-08
0.0118291
0.151483
-6.7229e-05
0.0118291
0.151483
-0.000113257
0.0115322
0.147596
-0.00012272
0.0109688
0.140166
-8.66108e-05
0.0101966
0.12984
0.00928975
0.117479
-2.59401e-08
0.000168503
0.0136504
0.144933
-2.17394e-09
0.000244629
0.0148939
0.160451
0.000227172
0.0159429
0.17334
0.000134899
0.0166967
0.18258
-2.38943e-08
0.0170915
0.187404
-0.000134946
0.0170915
0.187404
-0.000227217
0.0166967
0.18258
-0.000244671
0.0159429
0.17334
-0.000168541
0.0148939
0.160451
0.0136504
0.144933
-3.51013e-08
0.000273812
0.0170588
0.162376
-2.95613e-09
0.00039904
0.0184935
0.180186
0.000371334
0.0196897
0.194883
0.000220457
0.020537
0.205375
-3.15793e-08
0.0209775
0.21084
-0.000220519
0.0209775
0.21084
-0.000371393
0.020537
0.205375
-0.000399094
0.0196897
0.194883
-0.00027386
0.0184935
0.180186
0.0170588
0.162376
-4.32529e-08
0.000397089
0.0190139
0.170722
-3.86676e-09
0.000576854
0.0204721
0.190081
0.00053662
0.0216697
0.205942
0.000318339
0.0225054
0.217215
-3.93053e-08
0.0229365
0.22307
-0.000318416
0.0229365
0.22307
-0.000536692
0.0225054
0.217215
-0.000576919
0.0216697
0.205942
-0.000397145
0.0204721
0.190081
0.0190139
0.170722
-5.02018e-08
0.0005308
0.0193403
0.170943
-5.01359e-09
0.000767755
0.0206709
0.191233
0.000713375
0.0217435
0.207733
0.000422778
0.0224805
0.219402
-4.67662e-08
0.0228574
0.225445
-0.000422869
0.0228574
0.225445
-0.00071346
0.0224805
0.219402
-0.00076783
0.0217435
0.207733
-0.000530863
0.0206709
0.191233
0.0193404
0.170943
-5.57895e-08
0.00066816
0.018134
0.16402
-6.40893e-09
0.00096359
0.0192259
0.184751
0.0008938
0.0200884
0.20148
0.000528961
0.0206721
0.213246
-5.35199e-08
0.0209681
0.219319
-0.000529065
0.0209681
0.219319
-0.000893896
0.0206721
0.213246
-0.000963674
0.0200884
0.201479
-0.000668229
0.019226
0.184751
0.018134
0.16402
-5.9861e-08
0.000809154
0.0156868
0.150916
-7.83509e-09
0.00116144
0.016484
0.17173
0.00107306
0.0171015
0.188385
0.000633369
0.0175141
0.200023
-5.89592e-08
0.0177218
0.206006
-0.000633484
0.0177218
0.206006
-0.00107316
0.0175141
0.200023
-0.00116153
0.0171015
0.188385
-0.000809226
0.016484
0.17173
0.0156868
0.150916
-6.2478e-08
0.000948568
0.132561
-8.91487e-09
0.0124188
0.00135361
0.153263
0.0129101
0.00124586
0.169613
0.0132961
0.00073318
0.180952
0.013558
-6.21891e-08
0.186753
0.0136898
-0.0007333
0.186753
0.0136898
-0.00124597
0.180951
0.013558
-0.0013537
0.169613
0.0132962
-0.000948642
0.153263
0.0129101
0.132561
-6.24349e-08
0.0124188
-5.61148e-06
0.000584133
0.0288833
-3.07581e-10
-8.36501e-06
0.000642597
0.0318769
-6.63393e-06
0.000692073
0.0343968
-3.65844e-06
0.00072968
0.0362197
-2.23328e-09
0.000749445
0.0371768
3.65359e-06
0.000749446
0.0371768
6.62941e-06
0.00072968
0.0362197
8.36067e-06
0.000692074
0.0343968
5.60706e-06
0.000642598
0.0318769
0.000584134
0.0288832
-4.31999e-09
-9.34544e-07
0.00203497
0.0777587
-8.05192e-10
-2.0211e-06
0.00224178
0.0858425
-7.35393e-07
0.00241803
0.0926241
1.12018e-07
0.00254907
0.0975177
-7.20109e-09
0.0026185
0.100083
-1.24576e-07
0.0026185
0.100083
7.21253e-07
0.00254907
0.0975177
2.00626e-06
0.00241804
0.0926241
9.21362e-07
0.00224179
0.0858424
0.00203497
0.0777587
-1.27225e-08
1.76627e-05
0.00395778
0.115539
-1.35727e-09
2.61152e-05
0.00435245
0.12772
2.56118e-05
0.00468884
0.137896
1.58262e-05
0.00493567
0.145219
-1.30456e-08
0.00506612
0.149051
-1.58525e-05
0.00506612
0.149051
-2.56369e-05
0.00493567
0.145219
-2.61386e-05
0.00468885
0.137896
-1.76844e-05
0.00435246
0.12772
0.00395779
0.115539
-2.07697e-08
5.08356e-05
0.00593107
0.142909
-1.95907e-09
7.56559e-05
0.00649922
0.158279
7.20086e-05
0.0069809
0.171052
4.34668e-05
0.00733004
0.180214
-1.90709e-08
0.0075137
0.185
-4.35046e-05
0.0075137
0.185
-7.20446e-05
0.00733004
0.180214
-7.56892e-05
0.00698091
0.171052
-5.08658e-05
0.00649923
0.158279
0.00593108
0.142909
-2.81793e-08
9.73487e-05
0.0075823
0.160627
-2.64038e-09
0.000144174
0.00826852
0.17837
0.000136125
0.00884485
0.193027
8.15946e-05
0.00925737
0.203502
-2.52293e-08
0.00947307
0.208962
-8.16442e-05
0.00947307
0.208962
-0.000136172
0.00925737
0.203502
-0.000144217
0.00884486
0.193027
-9.73866e-05
0.00826853
0.17837
0.00758232
0.160627
-3.47983e-08
0.000155052
0.00864568
0.169504
-3.42409e-09
0.000228038
0.00937367
0.188903
0.000214355
0.00997696
0.204824
0.000128028
0.010403
0.216155
-3.13846e-08
0.0106242
0.222047
-0.000128089
0.0106242
0.222047
-0.000214413
0.010403
0.216155
-0.00022809
0.00997697
0.204824
-0.000155096
0.00937368
0.188903
0.00864569
0.169504
-4.0458e-08
0.000220698
0.00898475
0.170383
-4.38013e-09
0.000322635
0.00967663
0.190828
0.000302312
0.0102402
0.20749
0.000180121
0.0106325
0.219295
-3.72873e-08
0.0108346
0.225415
-0.000180194
0.0108346
0.225415
-0.00030238
0.0106325
0.219295
-0.000322695
0.0102402
0.20749
-0.000220748
0.00967665
0.190828
0.00898477
0.170383
-4.50246e-08
0.000291247
0.00858994
0.164124
-5.50222e-09
0.000424007
0.00918112
0.185113
0.000396044
0.00965351
0.202094
0.000235391
0.00997747
0.214062
-4.25865e-08
0.0101429
0.220246
-0.000235473
0.0101429
0.220246
-0.000396121
0.00997747
0.214062
-0.000424074
0.00965353
0.202094
-0.000291302
0.00918113
0.185113
0.00858995
0.164124
-4.83716e-08
0.000366871
0.00755784
0.151581
-6.62781e-09
0.000530456
0.00800892
0.172738
0.000492738
0.00836195
0.189714
0.000291813
0.00860056
0.201601
-4.68176e-08
0.00872143
0.207719
-0.000291904
0.00872143
0.207719
-0.000492821
0.00860056
0.201601
-0.000530528
0.00836196
0.189714
-0.000366929
0.00800893
0.172738
0.00755785
0.151581
-5.05388e-08
0.000442795
0.133607
-7.48608e-09
0.0060688
0.000636449
0.154717
0.00636087
0.000588921
0.171431
0.00659147
0.000347701
0.183045
0.0067488
-4.9322e-08
0.188994
0.00682838
-0.000347796
0.188994
0.00682838
-0.000589008
0.183044
0.0067488
-0.000636523
0.171431
0.00659147
-0.000442854
0.154717
0.00636088
0.133607
-5.06373e-08
0.00606881
-8.45489e-07
0.000189036
0.0286951
-2.33188e-10
-1.64349e-06
0.000209394
0.0316683
-1.19923e-06
0.000227119
0.0341692
-6.42193e-07
0.000241038
0.0359781
-1.74117e-09
0.000248465
0.0369277
6.38676e-07
0.000248465
0.0369277
1.1958e-06
0.000241038
0.0359781
1.64008e-06
0.00022712
0.0341692
8.42122e-07
0.000209395
0.0316683
0.000189037
0.0286951
-3.22619e-09
1.81901e-06
0.000738627
0.0772073
-6.27789e-10
1.91663e-06
0.000817938
0.0852338
2.07701e-06
0.000886652
0.0919644
1.36012e-06
0.000938656
0.0968208
-5.65627e-09
0.00096642
0.0993663
-1.37143e-06
0.000966421
0.0993663
-2.088e-06
0.000938658
0.0968208
-1.92703e-06
0.000886654
0.0919644
-1.82868e-06
0.00081794
0.0852338
0.000738629
0.0772073
-9.55157e-09
9.90438e-06
0.00151937
0.114748
-1.08706e-09
1.38832e-05
0.00167927
0.126855
1.31738e-05
0.00181714
0.136966
7.97727e-06
0.00191964
0.144243
-9.95976e-09
0.00197418
0.148051
-7.99702e-06
0.00197418
0.148051
-1.31929e-05
0.00191965
0.144243
-1.39012e-05
0.00181715
0.136966
-9.92091e-06
0.00167928
0.126855
0.00151937
0.114748
-1.57423e-08
2.40638e-05
0.00236345
0.14204
-1.58956e-09
3.50347e-05
0.00260362
0.157344
3.29884e-05
0.00280933
0.170062
1.97856e-05
0.00296021
0.179187
-1.45148e-08
0.00304009
0.183954
-1.98143e-05
0.00304009
0.183954
-3.30158e-05
0.00296021
0.179187
-3.50601e-05
0.00280933
0.170062
-2.40867e-05
0.00260363
0.157344
0.00236345
0.14204
-2.14953e-08
4.43677e-05
0.00311045
0.159836
-2.14871e-09
6.51315e-05
0.00341129
0.177541
6.12381e-05
0.00366656
0.192173
3.66174e-05
0.00385141
0.202636
-1.92025e-08
0.00394869
0.20809
-3.66552e-05
0.0039487
0.20809
-6.12739e-05
0.00385141
0.202636
-6.51643e-05
0.00366656
0.192173
-4.43966e-05
0.0034113
0.177541
0.00311046
0.159836
-2.66745e-08
7.02545e-05
0.00363354
0.168911
-2.77386e-09
0.0001031
0.0039632
0.188318
9.68164e-05
0.00423938
0.204257
5.77913e-05
0.00443674
0.215609
-2.38781e-08
0.00453989
0.221514
-5.78381e-05
0.00453989
0.221514
-9.68605e-05
0.00443675
0.215609
-0.00010314
0.00423939
0.204257
-7.02887e-05
0.00396321
0.188318
0.00363355
0.16891
-3.11458e-08
0.000100535
0.00385529
0.170061
-3.50835e-09
0.000147153
0.00417797
0.190566
0.000137973
0.00444397
0.207294
8.22336e-05
0.00463137
0.219156
-2.83499e-08
0.00472853
0.225309
-8.2289e-05
0.00472854
0.225308
-0.000138025
0.00463138
0.219156
-0.000147199
0.00444398
0.207294
-0.000100574
0.00417798
0.190566
0.0038553
0.170061
-3.48082e-08
0.000133924
0.00375308
0.164092
-4.3503e-09
0.000195456
0.0040367
0.185193
0.000182805
0.00426616
0.202285
0.000108732
0.00442532
0.214342
-3.2364e-08
0.00450709
0.220576
-0.000108795
0.0045071
0.220576
-0.000182864
0.00442533
0.214342
-0.000195507
0.00426617
0.202285
-0.000133967
0.00403671
0.185193
0.00375309
0.164092
-3.75643e-08
0.000170166
0.00335523
0.151809
-5.18782e-09
0.000246598
0.00357818
0.17312
0.000229422
0.00375426
0.190243
0.000136009
0.00387434
0.202245
-3.55944e-08
0.00393546
0.208427
-0.000136078
0.00393546
0.208427
-0.000229485
0.00387435
0.202245
-0.000246653
0.00375427
0.190243
-0.000170211
0.00357818
0.17312
0.00335524
0.151809
-3.94333e-08
0.000204786
0.134022
-5.79626e-09
0.00273547
0.000295762
0.155321
0.0028837
0.000274625
0.172206
0.00300103
0.000162491
0.18395
0.00308146
-3.76018e-08
0.18997
0.00312231
-0.000162564
0.18997
0.00312231
-0.000274692
0.183949
0.00308147
-0.000295819
0.172206
0.00300104
-0.000204832
0.155321
0.00288371
0.134022
-3.98365e-08
0.00273548
-1.38317e-06
7.65898e-05
0.0286199
-1.72726e-10
-1.9918e-06
8.40812e-05
0.0315848
-1.60182e-06
9.04969e-05
0.0340783
-8.8479e-07
9.54948e-05
0.0358819
-1.27374e-09
9.81355e-05
0.0368286
8.82248e-07
9.81356e-05
0.0368286
1.59932e-06
9.5495e-05
0.0358819
1.98936e-06
9.04973e-05
0.0340783
1.38078e-06
8.40818e-05
0.0315848
7.65902e-05
0.0286198
-2.29309e-09
-1.64941e-06
0.000288612
0.0769969
-4.79168e-10
-2.48193e-06
0.000318799
0.0849999
-1.99697e-06
0.000344896
0.0917095
-1.0645e-06
0.000364693
0.0965507
-4.14174e-09
0.000375252
0.0990881
1.05627e-06
0.000375252
0.0990881
1.98897e-06
0.000364694
0.0965507
2.47424e-06
0.000344898
0.0917095
1.64203e-06
0.000318801
0.0849999
0.000288614
0.0769969
-6.88362e-09
7.86511e-07
0.000594793
0.114441
-8.18777e-10
1.01035e-06
0.000658027
0.126516
1.21859e-06
0.000712562
0.136599
8.63144e-07
0.000753321
0.143855
-7.29093e-09
0.000775058
0.147652
-8.77574e-07
0.000775059
0.147652
-1.23251e-06
0.000753323
0.143855
-1.02324e-06
0.000712564
0.136598
-7.9767e-07
0.00065803
0.126516
0.000594797
0.114441
-1.12666e-08
5.87008e-06
0.00093721
0.141692
-1.2084e-09
8.67182e-06
0.00103537
0.156964
8.40488e-06
0.00111969
0.169655
5.14737e-06
0.00118194
0.178762
-1.06336e-08
0.00121502
0.183519
-5.16835e-06
0.00121502
0.183519
-8.42496e-06
0.00118195
0.178762
-8.69047e-06
0.0011197
0.169655
-5.8869e-06
0.00103537
0.156964
0.000937216
0.141692
-1.5667e-08
1.38682e-05
0.0012529
0.159506
-1.63091e-09
2.05538e-05
0.00137965
0.17719
1.95634e-05
0.00148766
0.191807
1.17997e-05
0.00156643
0.202259
-1.40737e-08
0.00160805
0.207709
-1.18273e-05
0.00160806
0.207709
-1.95897e-05
0.00156644
0.202259
-2.05778e-05
0.00148766
0.191806
-1.38895e-05
0.00137965
0.17719
0.00125291
0.159506
-1.96261e-08
2.45404e-05
0.00148706
0.168652
-2.09355e-09
3.62877e-05
0.00162989
0.188056
3.43384e-05
0.00175018
0.203997
2.06034e-05
0.00183679
0.215353
-1.75027e-08
0.00188225
0.22126
-2.06377e-05
0.00188225
0.22126
-3.43707e-05
0.00183679
0.215352
-3.63169e-05
0.00175019
0.203997
-2.45658e-05
0.0016299
0.188056
0.00148707
0.168652
-2.30688e-08
3.74508e-05
0.00160184
0.169909
-2.6221e-09
5.51983e-05
0.00174536
0.190433
5.20617e-05
0.00186438
0.207183
3.11463e-05
0.00194888
0.219065
-2.07855e-08
0.00199288
0.225229
-3.11869e-05
0.00199288
0.225229
-5.20998e-05
0.00194888
0.219065
-5.52322e-05
0.00186439
0.207183
-3.74796e-05
0.00174537
0.190433
0.00160185
0.169909
-2.59507e-08
5.21221e-05
0.00158103
0.164061
-3.20817e-09
7.65581e-05
0.00171041
0.185204
7.19499e-05
0.00181576
0.202338
4.29209e-05
0.00188938
0.21443
-2.37493e-08
0.00192737
0.220685
-4.29673e-05
0.00192737
0.220685
-7.19929e-05
0.00188939
0.21443
-7.6596e-05
0.00181577
0.202338
-5.21537e-05
0.00171041
0.185204
0.00158104
0.164061
-2.82069e-08
6.85276e-05
0.00143054
0.151891
-3.77463e-09
9.97979e-05
0.00153491
0.173265
9.31911e-05
0.00161785
0.190447
5.53719e-05
0.00167477
0.202498
-2.61788e-08
0.00170385
0.208706
-5.54229e-05
0.00170385
0.208706
-9.32381e-05
0.00167478
0.202498
-9.98388e-05
0.00161786
0.190447
-6.85613e-05
0.00153492
0.173265
0.00143054
0.151891
-2.98397e-08
8.45284e-05
0.13419
-4.18859e-09
0.00117787
0.000122707
0.155568
0.00124918
0.000114374
0.172526
0.00130586
6.78259e-05
0.184326
0.00134487
-2.77983e-08
0.190377
0.00136473
-6.78799e-05
0.190377
0.00136473
-0.000114423
0.184326
0.00134487
-0.00012275
0.172526
0.00130586
-8.45632e-05
0.155568
0.00124918
0.13419
-3.04832e-08
0.00117788
-3.9642e-07
1.96267e-05
0.0286006
-1.1841e-10
-6.10653e-07
2.17429e-05
0.0315633
-4.91088e-07
2.36805e-05
0.0340545
-2.72908e-07
2.52766e-05
0.0358564
-8.99482e-10
2.61377e-05
0.0368022
2.71118e-07
2.61377e-05
0.0368022
4.89336e-07
2.52768e-05
0.0358564
6.08955e-07
2.36808e-05
0.0340545
3.94763e-07
2.17433e-05
0.0315633
1.9627e-05
0.0286006
-1.56495e-09
-5.22497e-07
8.85344e-05
0.0769285
-3.43228e-10
-8.86368e-07
9.85726e-05
0.0849235
-7.42851e-07
0.000107519
0.0916255
-4.08304e-07
0.000114485
0.0964611
-2.92924e-09
0.000118245
0.0989956
4.0249e-07
0.000118245
0.0989956
7.37212e-07
0.000114486
0.0964611
8.80975e-07
0.00010752
0.0916255
5.1733e-07
9.8574e-05
0.0849234
8.85354e-05
0.0769285
-4.75966e-09
3.09479e-07
0.000197217
0.114332
-5.88385e-10
2.59609e-07
0.00021976
0.126395
2.92849e-07
0.00023957
0.136466
2.08402e-07
0.000254643
0.143715
-5.16501e-09
0.000262754
0.147508
-2.18613e-07
0.000262754
0.147508
-3.02693e-07
0.000254644
0.143715
-2.68645e-07
0.000239572
0.136466
-3.17272e-07
0.000219762
0.126394
0.00019722
0.114332
-7.84864e-09
2.17818e-06
0.000325708
0.141561
-8.66537e-10
3.06111e-06
0.000362305
0.15682
2.91106e-06
0.000394198
0.169501
1.76644e-06
0.000418085
0.178599
-7.54282e-09
0.000430871
0.183353
-1.78132e-06
0.000430872
0.183353
-2.92529e-06
0.000418086
0.178599
-3.0743e-06
0.0003942
0.169501
-2.19004e-06
0.000362308
0.15682
0.000325712
0.141561
-1.1012e-08
5.25201e-06
0.000450236
0.159376
-1.16356e-09
7.64207e-06
0.000499131
0.177051
7.21636e-06
0.000541312
0.19166
4.33449e-06
0.000572472
0.202107
-9.99263e-09
0.000589049
0.207555
-4.35415e-06
0.00058905
0.207555
-7.23504e-06
0.000572474
0.202107
-7.65916e-06
0.000541316
0.19166
-5.26713e-06
0.000499135
0.177051
0.000450241
0.159376
-1.39077e-08
9.48638e-06
0.000548403
0.168544
-1.48211e-09
1.3929e-05
0.000605067
0.187946
1.31373e-05
0.000653331
0.203885
7.86815e-06
0.000688491
0.215242
-1.24356e-08
0.000707062
0.22115
-7.89255e-06
0.000707063
0.22115
-1.31603e-05
0.000688494
0.215242
-1.39499e-05
0.000653335
0.203885
-9.50448e-06
0.000605072
0.187946
0.000548409
0.168544
-1.64763e-08
1.47424e-05
0.00060326
0.169839
-1.83414e-09
2.16905e-05
0.000661585
0.19037
2.04376e-05
0.000710479
0.207127
1.22193e-05
0.000745569
0.219016
-1.47807e-08
0.000763947
0.225184
-1.22482e-05
0.000763948
0.225184
-2.04648e-05
0.000745572
0.219016
-2.17147e-05
0.000710484
0.207127
-1.47632e-05
0.00066159
0.19037
0.000603266
0.169839
-1.86868e-08
2.08398e-05
0.000605926
0.164037
-2.21332e-09
3.06229e-05
0.00065968
0.185196
2.87819e-05
0.000703881
0.202346
1.71692e-05
0.000735061
0.214453
-1.6916e-08
0.000751226
0.220715
-1.72023e-05
0.000751227
0.220715
-2.88127e-05
0.000735064
0.214453
-3.06502e-05
0.000703885
0.202346
-2.08628e-05
0.000659685
0.185196
0.000605931
0.164037
-2.04912e-08
2.77048e-05
0.000556532
0.151913
-2.57889e-09
4.03858e-05
0.000600868
0.173311
3.77398e-05
0.000636305