/*--------------------------------*- C++ -*----------------------------------*\
| =========                 |                                                 |
| \\      /  F ield         | OpenFOAM: The Open Source CFD Toolbox           |
|  \\    /   O peration     | Version:  2106                                  |
|   \\  /    A nd           | Website:  www.openfoam.com                      |
|    \\/     M anipulation  |                                                 |
\*---------------------------------------------------------------------------*/
FoamFile
{
    version     2.0;
    format      ascii;
    arch        "LSB;label=32;scalar=64";
    class       volVectorField;
    location    "0.71";
    object      U;
}
// * * * * * * * * * * * * * * * * * * * * * * * * * * * * * * * * * * * * * //

dimensions      [0 1 -1 0 0 0 0];

internalField   nonuniform List<vector> 
10000
(
(0.0625656 0.0737234 0.345113)
(0.053361 0.0838439 0.359593)
(0.0398508 0.0929956 0.370957)
(0.024722 0.0993782 0.378806)
(0.00837817 0.102678 0.382794)
(-0.00837818 0.102678 0.382794)
(-0.024722 0.0993782 0.378806)
(-0.0398508 0.0929956 0.370957)
(-0.053361 0.0838439 0.359593)
(-0.0625656 0.0737234 0.345113)
(0.17207 0.204142 0.727859)
(0.145249 0.231386 0.747508)
(0.108437 0.255348 0.762147)
(0.0670906 0.271936 0.772045)
(0.02271 0.280491 0.776993)
(-0.02271 0.280491 0.776993)
(-0.0670907 0.271936 0.772045)
(-0.108437 0.255348 0.762147)
(-0.145249 0.231386 0.747508)
(-0.17207 0.204142 0.727859)
(0.222649 0.264375 0.923771)
(0.185841 0.296087 0.939598)
(0.137856 0.323778 0.950661)
(0.0848704 0.342723 0.957964)
(0.0286578 0.35243 0.961545)
(-0.0286579 0.35243 0.961545)
(-0.0848705 0.342723 0.957964)
(-0.137856 0.323778 0.950661)
(-0.185841 0.296087 0.939598)
(-0.222649 0.264375 0.923771)
(0.237675 0.281763 1.02288)
(0.196439 0.311646 1.03339)
(0.144818 0.337793 1.04006)
(0.088744 0.35548 1.04432)
(0.029898 0.364484 1.04635)
(-0.029898 0.364484 1.04635)
(-0.0887441 0.35548 1.04432)
(-0.144818 0.337793 1.04006)
(-0.196439 0.311646 1.03339)
(-0.237675 0.281763 1.02288)
(0.235744 0.278976 1.07124)
(0.193243 0.30498 1.07719)
(0.141713 0.32787 1.08032)
(0.0864929 0.343221 1.0822)
(0.0290834 0.350989 1.08304)
(-0.0290835 0.350989 1.08304)
(-0.086493 0.343221 1.0822)
(-0.141713 0.32787 1.08032)
(-0.193243 0.30498 1.07719)
(-0.235744 0.278976 1.07124)
(0.224743 0.265473 1.09232)
(0.182832 0.286885 1.09489)
(0.133443 0.305885 1.09555)
(0.0811452 0.318554 1.09579)
(0.0272373 0.324927 1.09584)
(-0.0272374 0.324927 1.09584)
(-0.0811453 0.318554 1.09579)
(-0.133443 0.305885 1.09555)
(-0.182832 0.286885 1.09489)
(-0.224743 0.265473 1.09232)
(0.208412 0.245555 1.09893)
(0.168264 0.262135 1.0992)
(0.12226 0.276994 1.09829)
(0.0740845 0.286883 1.09753)
(0.0248256 0.291836 1.0971)
(-0.0248258 0.291836 1.0971)
(-0.0740846 0.286883 1.09753)
(-0.12226 0.276994 1.09829)
(-0.168264 0.262135 1.0992)
(-0.208412 0.245555 1.09893)
(0.189082 0.221945 1.09824)
(0.151482 0.233737 1.09706)
(0.109603 0.244443 1.09526)
(0.0661983 0.251603 1.09395)
(0.0221479 0.255189 1.09326)
(-0.0221481 0.255189 1.09326)
(-0.0661985 0.251603 1.09395)
(-0.109603 0.244443 1.09526)
(-0.151482 0.233737 1.09706)
(-0.189082 0.221945 1.09824)
(0.168285 0.196431 1.09425)
(0.133859 0.203622 1.09219)
(0.096459 0.2103 1.08998)
(0.0580778 0.214897 1.08843)
(0.0194015 0.217219 1.08764)
(-0.0194016 0.217219 1.08764)
(-0.0580779 0.214897 1.08843)
(-0.0964592 0.2103 1.08998)
(-0.133859 0.203622 1.09219)
(-0.168285 0.196431 1.09425)
(0.147183 0.170665 1.08921)
(0.116594 0.171765 1.08668)
(0.0834362 0.175044 1.08432)
(0.0500515 0.177434 1.08274)
(0.0166906 0.178663 1.08194)
(-0.0166907 0.178663 1.08194)
(-0.0500517 0.177434 1.08274)
(-0.0834363 0.175044 1.08432)
(-0.116594 0.171765 1.08668)
(-0.147183 0.170665 1.08921)
(0.011196 0.0143015 0.266534)
(0.0094062 0.0175924 0.278797)
(0.00710249 0.020236 0.288838)
(0.0044961 0.0220484 0.295828)
(0.00153834 0.0229926 0.299406)
(-0.00153836 0.0229926 0.299406)
(-0.00449612 0.0220484 0.295828)
(-0.00710251 0.020236 0.288838)
(-0.00940622 0.0175924 0.278797)
(-0.011196 0.0143015 0.266534)
(0.054421 0.0658468 0.629532)
(0.046731 0.0792224 0.651477)
(0.0357646 0.0906836 0.669076)
(0.0226106 0.0988047 0.681179)
(0.00773754 0.103068 0.687323)
(-0.00773759 0.103068 0.687323)
(-0.0226106 0.0988047 0.681179)
(-0.0357646 0.0906836 0.669076)
(-0.0467311 0.0792223 0.651477)
(-0.054421 0.0658467 0.629532)
(0.0977947 0.116809 0.876496)
(0.0834368 0.138149 0.900318)
(0.0635207 0.156464 0.919004)
(0.0399177 0.169389 0.931699)
(0.0136197 0.17614 0.938092)
(-0.0136198 0.17614 0.938092)
(-0.0399178 0.169389 0.931699)
(-0.0635208 0.156464 0.919004)
(-0.0834369 0.138149 0.900318)
(-0.0977948 0.116809 0.876496)
(0.133885 0.15874 1.04426)
(0.11326 0.184876 1.06626)
(0.0856712 0.2072 1.0831)
(0.0535326 0.222843 1.0944)
(0.0182132 0.230967 1.10004)
(-0.0182134 0.230967 1.10004)
(-0.0535328 0.222843 1.0944)
(-0.0856713 0.2072 1.0831)
(-0.11326 0.184876 1.06626)
(-0.133885 0.15874 1.04426)
(0.15973 0.188306 1.15731)
(0.133968 0.216181 1.17593)
(0.100701 0.23983 1.1898)
(0.0626007 0.256282 1.19898)
(0.0212438 0.26478 1.20354)
(-0.021244 0.26478 1.20354)
(-0.0626009 0.256282 1.19898)
(-0.100701 0.23983 1.1898)
(-0.133968 0.216181 1.17593)
(-0.15973 0.188306 1.15731)
(0.175372 0.205679 1.23236)
(0.145845 0.232806 1.24719)
(0.108969 0.25562 1.25791)
(0.0674174 0.271385 1.2649)
(0.022824 0.279485 1.26834)
(-0.0228242 0.279485 1.26834)
(-0.0674177 0.271385 1.2649)
(-0.108969 0.25562 1.25791)
(-0.145845 0.232806 1.24719)
(-0.175373 0.205679 1.23236)
(0.181871 0.212201 1.28125)
(0.149959 0.236679 1.29248)
(0.111387 0.257024 1.30033)
(0.0686029 0.270999 1.30537)
(0.0231733 0.278146 1.30782)
(-0.0231735 0.278146 1.30782)
(-0.0686031 0.270999 1.30537)
(-0.111387 0.257024 1.30033)
(-0.149959 0.236679 1.29248)
(-0.181871 0.212201 1.28125)
(0.180565 0.209502 1.3123)
(0.147595 0.229951 1.32044)
(0.10901 0.246672 1.32592)
(0.066853 0.258103 1.32936)
(0.0225342 0.263931 1.33101)
(-0.0225345 0.263931 1.33101)
(-0.0668532 0.258103 1.32936)
(-0.10901 0.246672 1.32592)
(-0.147595 0.229951 1.32044)
(-0.180565 0.209502 1.3123)
(0.172912 0.199255 1.33136)
(0.14017 0.214742 1.33702)
(0.10294 0.227047 1.34066)
(0.062861 0.235477 1.34288)
(0.0211437 0.239771 1.34392)
(-0.021144 0.239771 1.34392)
(-0.0628614 0.235477 1.34288)
(-0.102941 0.227047 1.34066)
(-0.14017 0.214742 1.33702)
(-0.172913 0.199255 1.33136)
(0.16048 0.184267 1.34254)
(0.129228 0.1922 1.34636)
(0.0941282 0.19974 1.34863)
(0.0571906 0.204941 1.34995)
(0.0191893 0.207588 1.35055)
(-0.0191896 0.207588 1.35055)
(-0.0571909 0.204941 1.34995)
(-0.0941285 0.19974 1.34863)
(-0.129229 0.1922 1.34636)
(-0.16048 0.184267 1.34254)
(0.00112208 0.0012531 0.157639)
(0.00113324 0.00160022 0.165939)
(0.000883397 0.00200842 0.172869)
(0.000591334 0.00231078 0.177775)
(0.000206054 0.00247833 0.180314)
(-0.000206073 0.00247832 0.180314)
(-0.000591353 0.00231077 0.177775)
(-0.000883414 0.00200841 0.172869)
(-0.00113326 0.00160021 0.165939)
(-0.00112209 0.00125309 0.157639)
(0.0180202 0.0209102 0.441631)
(0.0162056 0.0255104 0.461833)
(0.0126833 0.0298394 0.478424)
(0.00814594 0.0330367 0.490068)
(0.00280692 0.0347543 0.496062)
(-0.00280698 0.0347543 0.496062)
(-0.008146 0.0330367 0.490068)
(-0.0126833 0.0298393 0.478424)
(-0.0162057 0.0255104 0.461833)
(-0.0180202 0.0209102 0.441631)
(0.0410773 0.0478133 0.685199)
(0.0362798 0.057444 0.712775)
(0.0281856 0.0662284 0.735061)
(0.0179546 0.0726519 0.750573)
(0.00616461 0.0760726 0.758516)
(-0.00616472 0.0760726 0.758516)
(-0.0179547 0.0726518 0.750573)
(-0.0281857 0.0662284 0.735061)
(-0.0362799 0.0574439 0.712775)
(-0.0410773 0.0478132 0.685199)
(0.065955 0.0768318 0.887815)
(0.0574891 0.0910137 0.918994)
(0.0443335 0.103702 0.943773)
(0.0280604 0.112883 0.960875)
(0.00960524 0.117737 0.969589)
(-0.00960539 0.117737 0.969589)
(-0.0280605 0.112883 0.960875)
(-0.0443336 0.103702 0.943773)
(-0.0574892 0.0910137 0.918994)
(-0.0659551 0.0768317 0.887815)
(0.088181 0.102606 1.05291)
(0.0759904 0.119871 1.08491)
(0.0581858 0.135091 1.10991)
(0.0366213 0.145997 1.12702)
(0.0125016 0.151726 1.13569)
(-0.0125019 0.151726 1.13569)
(-0.0366215 0.145997 1.12702)
(-0.058186 0.135091 1.10991)
(-0.0759906 0.119871 1.08491)
(-0.0881812 0.102606 1.05291)
(0.105512 0.122456 1.18539)
(0.0899729 0.141053 1.21632)
(0.0684212 0.157223 1.24008)
(0.0428393 0.168708 1.2562)
(0.0145873 0.174704 1.26434)
(-0.0145875 0.174704 1.26434)
(-0.0428395 0.168707 1.2562)
(-0.0684214 0.157223 1.24008)
(-0.0899731 0.141053 1.21632)
(-0.105512 0.122456 1.18539)
(0.117098 0.135413 1.29037)
(0.0988393 0.153655 1.3191)
(0.0746599 0.169281 1.34079)
(0.0465128 0.18029 1.3554)
(0.0157995 0.186007 1.36274)
(-0.0157998 0.186007 1.36274)
(-0.0465131 0.18029 1.3554)
(-0.0746602 0.169281 1.34079)
(-0.0988396 0.153655 1.3191)
(-0.117098 0.135413 1.29037)
(0.122814 0.141365 1.37265)
(0.102622 0.157777 1.39856)
(0.0770031 0.171586 1.41785)
(0.0477396 0.181242 1.43074)
(0.0161771 0.186233 1.43718)
(-0.0161775 0.186233 1.43718)
(-0.0477399 0.181242 1.43074)
(-0.0770034 0.171586 1.41785)
(-0.102622 0.157777 1.39856)
(-0.122814 0.141365 1.37265)
(0.123057 0.140751 1.43631)
(0.101812 0.154151 1.4593)
(0.0758658 0.165098 1.47616)
(0.0467926 0.17272 1.48731)
(0.0158157 0.176644 1.49285)
(-0.0158161 0.176644 1.49285)
(-0.046793 0.17272 1.48731)
(-0.0758661 0.165098 1.47616)
(-0.101813 0.154151 1.4593)
(-0.123058 0.140751 1.43631)
(0.118647 0.135384 1.48471)
(0.0972054 0.143439 1.50528)
(0.0717196 0.150723 1.5198)
(0.0439609 0.15577 1.52926)
(0.0148133 0.158352 1.53393)
(-0.0148137 0.158352 1.53393)
(-0.0439613 0.15577 1.52926)
(-0.07172 0.150723 1.5198)
(-0.0972058 0.143439 1.50528)
(-0.118647 0.135384 1.48471)
(0.00071338 0.000936884 0.137896)
(0.00055763 0.00117472 0.144703)
(0.000381908 0.0013434 0.150245)
(0.000236854 0.00144324 0.154136)
(7.93142e-05 0.00149322 0.156143)
(-7.93324e-05 0.00149321 0.156143)
(-0.000236872 0.00144323 0.154136)
(-0.000381924 0.00134339 0.150245)
(-0.000557645 0.00117471 0.144703)
(-0.000713392 0.000936874 0.137896)
(0.00704231 0.00842045 0.395398)
(0.00611547 0.010379 0.413462)
(0.00470283 0.0120738 0.428086)
(0.00300045 0.0132905 0.438322)
(0.00103046 0.0139379 0.443589)
(-0.00103052 0.0139378 0.443589)
(-0.00300051 0.0132905 0.438322)
(-0.00470289 0.0120737 0.428086)
(-0.00611552 0.0103789 0.413462)
(-0.00704235 0.00842042 0.395398)
(0.017272 0.0203935 0.628518)
(0.0150678 0.0248306 0.655186)
(0.0116616 0.0287248 0.676609)
(0.00742957 0.0315521 0.69154)
(0.00255147 0.0330562 0.699204)
(-0.00255158 0.0330562 0.699204)
(-0.00742967 0.0315521 0.69154)
(-0.0116617 0.0287248 0.676609)
(-0.0150678 0.0248306 0.655186)
(-0.0172721 0.0203935 0.628518)
(0.0296353 0.0347932 0.835347)
(0.025769 0.0418568 0.867937)
(0.019918 0.0480556 0.893871)
(0.0126494 0.0525517 0.911857)
(0.00433798 0.0549362 0.92106)
(-0.00433814 0.0549362 0.92106)
(-0.0126495 0.0525517 0.911857)
(-0.0199181 0.0480556 0.893871)
(-0.0257692 0.0418568 0.867937)
(-0.0296354 0.0347931 0.835347)
(0.0420808 0.0491845 1.01584)
(0.0363655 0.0584235 1.05193)
(0.0279957 0.0664853 1.08035)
(0.0177091 0.0723035 1.09996)
(0.00606159 0.0753762 1.10996)
(-0.0060618 0.0753762 1.10996)
(-0.0177093 0.0723035 1.09996)
(-0.0279958 0.0664853 1.08035)
(-0.0363657 0.0584234 1.05193)
(-0.042081 0.0491844 1.01584)
(0.0531173 0.0618093 1.17117)
(0.045555 0.072425 1.20873)
(0.0348853 0.0816018 1.23798)
(0.0219708 0.0881809 1.25805)
(0.00750421 0.0916386 1.26826)
(-0.00750447 0.0916386 1.26826)
(-0.021971 0.0881809 1.25805)
(-0.0348855 0.0816017 1.23798)
(-0.0455552 0.0724249 1.20873)
(-0.0531175 0.0618093 1.17117)
(0.0617587 0.0715271 1.30312)
(0.0525146 0.0825654 1.34056)
(0.0399744 0.0919866 1.36938)
(0.0250593 0.0986908 1.38905)
(0.00853946 0.102196 1.39902)
(-0.00853977 0.102196 1.39902)
(-0.0250596 0.0986907 1.38905)
(-0.0399746 0.0919865 1.36938)
(-0.0525148 0.0825654 1.34056)
(-0.0617589 0.0715271 1.30312)
(0.0674129 0.0776554 1.41374)
(0.0567967 0.0881418 1.44987)
(0.0429562 0.0969453 1.47739)
(0.0267982 0.103159 1.49606)
(0.00910988 0.106392 1.50549)
(-0.00911023 0.106392 1.50549)
(-0.0267985 0.103159 1.49606)
(-0.0429566 0.0969453 1.47739)
(-0.0567969 0.0881417 1.44986)
(-0.0674132 0.0776553 1.41374)
(0.0698843 0.0799305 1.50499)
(0.0583175 0.0889851 1.53914)
(0.0437929 0.0963735 1.56485)
(0.0271727 0.101551 1.58214)
(0.00921203 0.104229 1.59081)
(-0.00921241 0.104229 1.59081)
(-0.0271731 0.101551 1.58214)
(-0.0437933 0.0963734 1.56485)
(-0.0583178 0.0889851 1.53914)
(-0.0698846 0.0799304 1.50499)
(0.0693533 0.079141 1.57857)
(0.0572671 0.0851586 1.61101)
(0.0425665 0.0903888 1.63452)
(0.026236 0.0940192 1.65012)
(0.00886497 0.0958826 1.65788)
(-0.00886537 0.0958826 1.65788)
(-0.0262364 0.0940192 1.65012)
(-0.0425668 0.0903888 1.63452)
(-0.0572674 0.0851586 1.61101)
(-0.0693536 0.079141 1.57857)
(0.00013042 0.000142624 0.126969)
(0.000120829 0.000186946 0.13331)
(8.92813e-05 0.000232366 0.138465)
(6.10774e-05 0.000264203 0.14209)
(2.10931e-05 0.000282253 0.143961)
(-2.11089e-05 0.000282252 0.143961)
(-6.10927e-05 0.000264199 0.14209)
(-8.92956e-05 0.00023236 0.138465)
(-0.000120842 0.000186938 0.13331)
(-0.000130431 0.000142616 0.126969)
(0.00251162 0.00290515 0.368197)
(0.00224656 0.00360156 0.385445)
(0.00175969 0.00424299 0.399417)
(0.00113732 0.00472024 0.409221)
(0.000392707 0.00497931 0.414274)
(-0.000392761 0.0049793 0.414274)
(-0.00113737 0.00472023 0.409221)
(-0.00175974 0.00424297 0.399417)
(-0.00224661 0.00360154 0.385445)
(-0.00251166 0.00290512 0.368197)
(0.00684189 0.00793712 0.591844)
(0.00607882 0.00973026 0.618024)
(0.0047648 0.0113587 0.639119)
(0.00306206 0.0125702 0.653881)
(0.00105572 0.0132232 0.661475)
(-0.00105582 0.0132232 0.661475)
(-0.00306216 0.0125702 0.653881)
(-0.00476489 0.0113587 0.639119)
(-0.0060789 0.00973023 0.618024)
(-0.00684196 0.00793708 0.591844)
(0.0125575 0.0145701 0.796413)
(0.011084 0.0176672 0.829464)
(0.00866287 0.0204538 0.855914)
(0.00554348 0.0225165 0.874358)
(0.00190795 0.0236227 0.883827)
(-0.00190809 0.0236227 0.883827)
(-0.00554362 0.0225165 0.874358)
(-0.008663 0.0204538 0.855914)
(-0.0110841 0.0176672 0.829464)
(-0.0125576 0.01457 0.796413)
(0.018783 0.0217582 0.981169)
(0.0164594 0.0260734 1.01908)
(0.0128066 0.02992 1.04917)
(0.00816064 0.0327485 1.07008)
(0.00280326 0.0342579 1.08078)
(-0.00280345 0.0342579 1.08078)
(-0.00816082 0.0327485 1.07008)
(-0.0128068 0.02992 1.04917)
(-0.0164595 0.0260734 1.01908)
(-0.0187831 0.0217582 0.981168)
(0.0247487 0.0285879 1.14599)
(0.021515 0.0338135 1.18689)
(0.0166498 0.0384219 1.21907)
(0.0105627 0.0417852 1.24133)
(0.00362067 0.0435708 1.2527)
(-0.0036209 0.0435708 1.2527)
(-0.0105629 0.0417852 1.24133)
(-0.01665 0.0384219 1.21907)
(-0.0215152 0.0338135 1.18689)
(-0.0247488 0.0285879 1.14599)
(0.0298387 0.0343378 1.29118)
(0.0257152 0.0400228 1.3334)
(0.0197789 0.0449713 1.36632)
(0.0124889 0.0485534 1.389)
(0.00427101 0.050445 1.40055)
(-0.00427128 0.050445 1.40055)
(-0.0124891 0.0485534 1.389)
(-0.0197792 0.0449712 1.36632)
(-0.0257155 0.0400228 1.3334)
(-0.0298389 0.0343378 1.29118)
(0.0335992 0.0384763 1.41729)
(0.0286863 0.0441001 1.45944)
(0.0219169 0.0489165 1.49202)
(0.0137692 0.0523711 1.51434)
(0.00469691 0.0541848 1.52567)
(-0.00469722 0.0541848 1.52567)
(-0.0137695 0.0523711 1.51434)
(-0.0219172 0.0489165 1.49202)
(-0.0286866 0.0441001 1.45944)
(-0.0335994 0.0384763 1.41729)
(0.0357853 0.040697 1.52488)
(0.0302474 0.0457478 1.56603)
(0.022932 0.0499508 1.59747)
(0.0143226 0.0529356 1.61883)
(0.00487121 0.0544915 1.62961)
(-0.00487155 0.0544915 1.62961)
(-0.0143229 0.0529356 1.61883)
(-0.0229323 0.0499508 1.59747)
(-0.0302477 0.0457478 1.56603)
(-0.0357856 0.040697 1.52488)
(0.0363684 0.0413072 1.61435)
(0.0303645 0.0448767 1.65464)
(0.0227643 0.0479649 1.68426)
(0.0141129 0.0501265 1.7041)
(0.00478214 0.0512421 1.71404)
(-0.0047825 0.0512421 1.71404)
(-0.0141133 0.0501265 1.7041)
(-0.0227647 0.0479649 1.68426)
(-0.0303648 0.0448767 1.65464)
(-0.0363687 0.0413072 1.61435)
(7.95858e-05 0.000107401 0.124006)
(5.57335e-05 0.000136243 0.130149)
(3.41752e-05 0.000152952 0.135112)
(2.09065e-05 0.000161212 0.138595)
(6.79079e-06 0.000165166 0.140391)
(-6.80366e-06 0.000165165 0.140391)
(-2.09192e-05 0.000161209 0.138595)
(-3.41866e-05 0.000152947 0.135112)
(-5.57442e-05 0.000136237 0.130149)
(-7.95949e-05 0.000107393 0.124006)
(0.00103889 0.00124063 0.359712)
(0.000892422 0.00153879 0.376515)
(0.000682514 0.00178974 0.390069)
(0.000435872 0.00196988 0.39957)
(0.00014961 0.00206622 0.404464)
(-0.000149654 0.00206621 0.404464)
(-0.000435916 0.00196987 0.39957)
(-0.000682553 0.00178972 0.390069)
(-0.000892458 0.00153877 0.376514)
(-0.00103892 0.00124061 0.359712)
(0.00286325 0.0033702 0.579447)
(0.00250065 0.00414548 0.605196)
(0.0019416 0.00482197 0.625893)
(0.00124228 0.00531854 0.640374)
(0.00042744 0.00558489 0.647824)
(-0.00042752 0.00558489 0.647824)
(-0.00124236 0.00531853 0.640374)
(-0.00194167 0.00482196 0.625893)
(-0.00250072 0.00414545 0.605196)
(-0.0028633 0.00337017 0.579447)
(0.00536722 0.00627845 0.78249)
(0.00470067 0.00765426 0.815429)
(0.00366104 0.00886686 0.84177)
(0.00234029 0.0097605 0.860155)
(0.000805186 0.0102393 0.8696)
(-0.000805302 0.0102393 0.8696)
(-0.0023404 0.00976049 0.860155)
(-0.00366114 0.00886684 0.84177)
(-0.00470077 0.00765423 0.815429)
(-0.0053673 0.00627841 0.78249)
(0.00822575 0.00957788 0.968349)
(0.00718799 0.0115565 1.00672)
(0.00559125 0.0133008 1.03722)
(0.00356576 0.0145836 1.05844)
(0.00122554 0.015269 1.06933)
(-0.0012257 0.015269 1.06933)
(-0.0035659 0.0145836 1.05844)
(-0.00559139 0.0133008 1.03722)
(-0.00718812 0.0115565 1.00672)
(-0.00822586 0.00957784 0.968349)
(0.0111076 0.0128763 1.13675)
(0.00965828 0.0153504 1.17886)
(0.00748653 0.0175197 1.21208)
(0.00475867 0.0191071 1.23513)
(0.00163293 0.019952 1.24693)
(-0.00163313 0.019952 1.24693)
(-0.00475885 0.0191071 1.23513)
(-0.00748671 0.0175196 1.21208)
(-0.00965844 0.0153504 1.17886)
(-0.0111078 0.0128763 1.13675)
(0.013707 0.0158152 1.2876)
(0.0118377 0.0185912 1.33184)
(0.00913057 0.0210016 1.36648)
(0.00578028 0.0227536 1.39043)
(0.00197952 0.0236816 1.40265)
(-0.00197975 0.0236816 1.40265)
(-0.0057805 0.0227535 1.39043)
(-0.00913078 0.0210016 1.36648)
(-0.0118379 0.0185912 1.33184)
(-0.0137072 0.0158151 1.2876)
(0.0157657 0.0180902 1.42088)
(0.0135052 0.0209194 1.46583)
(0.0103543 0.023342 1.50075)
(0.00652425 0.0250876 1.52479)
(0.00222898 0.0260069 1.53702)
(-0.00222924 0.0260069 1.53702)
(-0.0065245 0.0250876 1.52479)
(-0.0103545 0.023342 1.50075)
(-0.0135054 0.0209193 1.46583)
(-0.0157659 0.0180902 1.42088)
(0.0171132 0.0194886 1.53651)
(0.0145232 0.0221069 1.58113)
(0.0110526 0.0242897 1.61545)
(0.00692422 0.025846 1.63887)
(0.00235865 0.0266595 1.65073)
(-0.00235894 0.0266595 1.65073)
(-0.0069245 0.025846 1.63887)
(-0.0110529 0.0242897 1.61545)
(-0.0145234 0.0221069 1.58113)
(-0.0171134 0.0194886 1.53651)
(0.0176852 0.0201098 1.63418)
(0.0148243 0.0220427 1.67858)
(0.0111571 0.0237003 1.71145)
(0.00693754 0.0248639 1.73357)
(0.00235428 0.0254658 1.74468)
(-0.00235458 0.0254658 1.74468)
(-0.00693784 0.0248639 1.73357)
(-0.0111574 0.0237003 1.71145)
(-0.0148246 0.0220427 1.67858)
(-0.0176854 0.0201098 1.63418)
(1.22035e-05 1.50092e-05 0.12251)
(8.30422e-06 2.05203e-05 0.128586)
(4.65466e-06 2.41392e-05 0.133491)
(3.43093e-06 2.6214e-05 0.136935)
(1.15002e-06 2.74192e-05 0.13871)
(-1.15991e-06 2.74184e-05 0.13871)
(-3.44058e-06 2.62118e-05 0.136935)
(-4.6637e-06 2.41357e-05 0.133491)
(-8.31271e-06 2.05154e-05 0.128586)
(-1.22105e-05 1.50034e-05 0.12251)
(0.00036062 0.000421374 0.355485)
(0.000314838 0.000525994 0.372118)
(0.000243865 0.000617268 0.385528)
(0.000157428 0.000684717 0.394931)
(5.42894e-05 0.00072137 0.399775)
(-5.43237e-05 0.000721368 0.399775)
(-0.000157461 0.00068471 0.394931)
(-0.000243896 0.000617258 0.385528)
(-0.000314867 0.000525981 0.372118)
(-0.000360644 0.000421357 0.355485)
(0.00107719 0.00125332 0.57313)
(0.00095014 0.00155023 0.598693)
(0.000743775 0.00181436 0.619238)
(0.000478833 0.00201165 0.63362)
(0.000165226 0.00211845 0.641021)
(-0.000165288 0.00211845 0.641021)
(-0.000478893 0.00201164 0.63362)
(-0.000743831 0.00181435 0.619238)
(-0.000950191 0.00155021 0.598693)
(-0.00107723 0.00125329 0.57313)
(0.00211238 0.00245131 0.775049)
(0.00186526 0.00300547 0.807908)
(0.00146278 0.00350074 0.834198)
(0.000939782 0.00387077 0.852564)
(0.000324114 0.00407051 0.862003)
(-0.000324205 0.00407051 0.862003)
(-0.000939871 0.00387076 0.852563)
(-0.00146286 0.00350073 0.834198)
(-0.00186534 0.00300545 0.807908)
(-0.00211245 0.00245128 0.775049)
(0.00334546 0.00387058 0.960922)
(0.00294636 0.00469825 0.999448)
(0.00230706 0.00543679 1.0301)
(0.00147832 0.00598668 1.05146)
(0.000509276 0.00628253 1.06242)
(-0.000509397 0.00628253 1.06242)
(-0.00147844 0.00598667 1.05146)
(-0.00230717 0.00543677 1.0301)
(-0.00294646 0.00469822 0.999447)
(-0.00334555 0.00387055 0.960922)
(0.00463942 0.0053484 1.1305)
(0.00406609 0.00641636 1.17309)
(0.0031728 0.00736376 1.20676)
(0.00202634 0.00806528 1.23016)
(0.000696964 0.00844116 1.24214)
(-0.000697115 0.00844115 1.24214)
(-0.00202649 0.00806527 1.23016)
(-0.00317294 0.00736374 1.20676)
(-0.00406622 0.00641634 1.17309)
(-0.00463953 0.00534837 1.1305)
(0.00585608 0.00672233 1.28358)
(0.00509871 0.00795391 1.32869)
(0.00395924 0.00903604 1.36411)
(0.00251847 0.00983158 1.38864)
(0.000864508 0.0102557 1.40119)
(-0.000864688 0.0102557 1.40119)
(-0.00251865 0.00983157 1.38864)
(-0.0039594 0.00903603 1.36411)
(-0.00509886 0.00795389 1.32869)
(-0.00585621 0.0067223 1.28358)
(0.00686927 0.00784345 1.41995)
(0.00593349 0.00913016 1.46616)
(0.00457972 0.0102455 1.50219)
(0.00289932 0.0110577 1.52705)
(0.000992823 0.0114881 1.53972)
(-0.000993029 0.0114881 1.53972)
(-0.00289952 0.0110577 1.52705)
(-0.00457991 0.0102455 1.50219)
(-0.00593366 0.00913014 1.46616)
(-0.00686942 0.00784343 1.41995)
(0.00758758 0.00859914 1.53923)
(0.0064923 0.00981907 1.5855)
(0.00497262 0.0108479 1.62122)
(0.00312913 0.0115879 1.64566)
(0.0010682 0.0119768 1.65806)
(-0.00106843 0.0119768 1.65806)
(-0.00312935 0.0115879 1.64566)
(-0.00497282 0.0108479 1.62122)
(-0.00649249 0.00981906 1.5855)
(-0.00758775 0.00859913 1.53923)
(0.00796455 0.00902197 1.6408)
(0.00672404 0.00995387 1.68723)
(0.00509023 0.0107516 1.72172)
(0.00317772 0.0113149 1.745)
(0.00108043 0.0116074 1.75671)
(-0.00108067 0.0116074 1.75671)
(-0.00317795 0.0113149 1.745)
(-0.00509045 0.0107516 1.72172)
(-0.00672424 0.00995387 1.68722)
(-0.00796473 0.00902197 1.6408)
(7.71878e-06 1.22901e-05 0.122115)
(3.18791e-06 1.60333e-05 0.128164)
(6.1363e-07 1.71396e-05 0.133042)
(1.37614e-07 1.71598e-05 0.136467)
(-3.57456e-08 1.70674e-05 0.138232)
(2.84396e-08 1.70669e-05 0.138232)
(-1.44714e-07 1.71582e-05 0.136467)
(-6.20315e-07 1.7137e-05 0.133042)
(-3.1943e-06 1.60297e-05 0.128164)
(-7.72404e-06 1.22857e-05 0.122115)
(0.000138343 0.000168137 0.354195)
(0.000114644 0.000210236 0.37075)
(8.5904e-05 0.000243369 0.384086)
(5.44949e-05 0.000266691 0.393436)
(1.86301e-05 0.000279094 0.398252)
(-1.86557e-05 0.000279092 0.398252)
(-5.45197e-05 0.000266687 0.393436)
(-8.59272e-05 0.000243362 0.384086)
(-0.000114666 0.000210226 0.37075)
(-0.000138361 0.000168124 0.354195)
(0.00041618 0.000492502 0.571057)
(0.000359357 0.00061106 0.596522)
(0.000277725 0.000712059 0.616976)
(0.000177616 0.000786232 0.631293)
(6.10945e-05 0.000826089 0.63866)
(-6.11407e-05 0.000826086 0.63866)
(-0.000177661 0.000786225 0.631293)
(-0.000277767 0.000712048 0.616975)
(-0.000359395 0.000611045 0.596522)
(-0.000416212 0.000492484 0.571057)
(0.000828405 0.000970165 0.772494)
(0.000723978 0.0011946 0.805285)
(0.000564505 0.00139075 0.831513)
(0.000361712 0.0015363 0.849837)
(0.000124597 0.00161467 0.859256)
(-0.000124665 0.00161467 0.859256)
(-0.000361778 0.00153629 0.849837)
(-0.000564567 0.00139074 0.831512)
(-0.000724035 0.00119458 0.805285)
(-0.000828454 0.000970143 0.772494)
(0.00133492 0.00155317 0.958306)
(0.00116987 0.00189505 0.996851)
(0.000913977 0.00219633 1.02752)
(0.000585284 0.00242017 1.0489)
(0.000201581 0.00254057 1.05988)
(-0.000201672 0.00254056 1.05988)
(-0.000585373 0.00242017 1.0489)
(-0.00091406 0.00219631 1.02752)
(-0.00116994 0.00189503 0.996851)
(-0.00133498 0.00155315 0.958305)
(0.00188377 0.00217997 1.1283)
(0.00164792 0.00263041 1.17105)
(0.00128558 0.00302719 1.20486)
(0.000821483 0.00332107 1.22837)
(0.000282642 0.00347868 1.24042)
(-0.000282756 0.00347868 1.24042)
(-0.000821593 0.00332107 1.22837)
(-0.00128569 0.00302717 1.20486)
(-0.00164801 0.00263039 1.17105)
(-0.00188385 0.00217995 1.1283)
(0.00241726 0.00278269 1.28227)
(0.00210476 0.00331295 1.32771)
(0.001636 0.0037771 1.36342)
(0.00104194 0.00411887 1.38818)
(0.000357899 0.00430136 1.40085)
(-0.000358035 0.00430136 1.40085)
(-0.00104207 0.00411886 1.38818)
(-0.00163612 0.00377708 1.36342)
(-0.00210487 0.00331293 1.32771)
(-0.00241735 0.00278267 1.28227)
(0.00287848 0.00329398 1.41993)
(0.00248957 0.00385918 1.46667)
(0.0019249 0.00434833 1.50316)
(0.00122061 0.00470534 1.52836)
(0.000418327 0.00489483 1.54121)
(-0.000418483 0.00489483 1.54121)
(-0.00122076 0.00470533 1.52836)
(-0.00192504 0.00434832 1.50316)
(-0.0024897 0.00385917 1.46667)
(-0.0028786 0.00329396 1.41993)
(0.00322262 0.00365832 1.54081)
(0.00276307 0.00420503 1.58781)
(0.00212085 0.00466617 1.62414)
(0.00133703 0.00499858 1.64903)
(0.000456843 0.0051735 1.66167)
(-0.000457014 0.0051735 1.66167)
(-0.0013372 0.00499858 1.64903)
(-0.00212101 0.00466617 1.62414)
(-0.00276322 0.00420502 1.5878)
(-0.00322275 0.00365831 1.54081)
(0.00342307 0.00388304 1.64414)
(0.00289632 0.00431191 1.69149)
(0.00219777 0.00467742 1.72673)
(0.00137458 0.004936 1.75053)
(0.000467782 0.00507044 1.76252)
(-0.000467964 0.00507044 1.76252)
(-0.00137476 0.00493601 1.75053)
(-0.00219794 0.00467742 1.72672)
(-0.00289647 0.00431191 1.69149)
(-0.0034232 0.00388304 1.64414)
(-4.47984e-07 1.74316e-07 0.121939)
(-1.47588e-06 6.58165e-07 0.127979)
(-1.66387e-06 4.8226e-07 0.132849)
(-1.08258e-06 1.67987e-07 0.136269)
(-3.92142e-07 -1.03338e-08 0.138031)
(3.86966e-07 -1.07181e-08 0.138031)
(1.07755e-06 1.66836e-07 0.136269)
(1.65913e-06 4.80401e-07 0.132849)
(1.47134e-06 6.55581e-07 0.127979)
(4.44262e-07 1.71211e-07 0.121939)
(3.89994e-05 4.69309e-05 0.35363)
(3.20468e-05 5.96373e-05 0.370156)
(2.39922e-05 6.96752e-05 0.383467)
(1.5323e-05 7.68887e-05 0.392799)
(5.24694e-06 8.07776e-05 0.397606)
(-5.26515e-06 8.07764e-05 0.397606)
(-1.53406e-05 7.68853e-05 0.392799)
(-2.40088e-05 6.96698e-05 0.383467)
(-3.20624e-05 5.963e-05 0.370156)
(-3.90122e-05 4.69221e-05 0.35363)
(0.000133844 0.000157131 0.570137)
(0.0001159 0.000197059 0.595561)
(9.00019e-05 0.000231396 0.61598)
(5.7844e-05 0.000257005 0.630273)
(1.99366e-05 0.000270882 0.637629)
(-1.99697e-05 0.00027088 0.637628)
(-5.7876e-05 0.000257 0.630273)
(-9.00319e-05 0.000231388 0.61598)
(-0.000115928 0.000197048 0.595561)
(-0.000133868 0.000157118 0.570136)
(0.000283515 0.000329845 0.771321)
(0.000249031 0.000409822 0.804079)
(0.000195251 0.000480363 0.830279)
(0.000125671 0.000533384 0.848586)
(4.33767e-05 0.000562131 0.857996)
(-4.34258e-05 0.000562128 0.857996)
(-0.000125719 0.000533378 0.848586)
(-0.000195295 0.000480353 0.830279)
(-0.000249072 0.000409808 0.804079)
(-0.00028355 0.000329829 0.771321)
(0.000475606 0.000550124 0.957039)
(0.000419307 0.00067674 0.995581)
(0.000329508 0.000789334 1.02625)
(0.00021194 0.000873962 1.04764)
(7.31455e-05 0.000919768 1.05862)
(-7.32112e-05 0.000919766 1.05862)
(-0.000212004 0.000873956 1.04764)
(-0.000329568 0.000789323 1.02625)
(-0.000419362 0.000676725 0.995581)
(-0.000475653 0.000550106 0.957038)
(0.0006914 0.000795747 1.12713)
(0.000608827 0.000967618 1.16993)
(0.000477838 0.00112039 1.20379)
(0.000306691 0.00123479 1.22734)
(0.000105741 0.00129651 1.23941)
(-0.000105824 0.00129651 1.23941)
(-0.000306771 0.00123478 1.22734)
(-0.000477913 0.00112038 1.20379)
(-0.000608896 0.000967603 1.16993)
(-0.00069146 0.00079573 1.12713)
(0.000908322 0.00104014 1.28139)
(0.000796437 0.00124751 1.32696)
(0.000622871 0.00143072 1.36278)
(0.000398453 0.001567 1.38763)
(0.000137151 0.00164019 1.40035)
(-0.00013725 0.00164019 1.40035)
(-0.000398549 0.001567 1.38763)
(-0.000622962 0.00143071 1.36278)
(-0.00079652 0.0012475 1.32696)
(-0.000908394 0.00104013 1.28139)
(0.00110281 0.00125545 1.41954)
(0.000960731 0.00148127 1.46648)
(0.000747359 0.00167854 1.50316)
(0.000475957 0.00182386 1.5285)
(0.000163451 0.00190139 1.54143)
(-0.000163564 0.00190139 1.54143)
(-0.000476066 0.00182385 1.5285)
(-0.000747463 0.00167853 1.50316)
(-0.000960826 0.00148126 1.46648)
(-0.0011029 0.00125544 1.41954)
(0.0012553 0.0014177 1.54104)
(0.00108399 0.00164059 1.58833)
(0.000836854 0.00183015 1.62492)
(0.000529693 0.00196781 1.65)
(0.000181326 0.00204056 1.66273)
(-0.000181451 0.00204056 1.66273)
(-0.000529815 0.00196781 1.65)
(-0.00083697 0.00183015 1.62492)
(-0.0010841 0.00164058 1.58833)
(-0.0012554 0.00141769 1.54104)
(0.00135273 0.00152851 1.64509)
(0.00115159 0.00170811 1.69282)
(0.000878404 0.00186072 1.72837)
(0.000551335 0.0019692 1.75241)
(0.000187929 0.00202577 1.76451)
(-0.000188062 0.00202577 1.76451)
(-0.000551466 0.0019692 1.75241)
(-0.000878528 0.00186072 1.72837)
(-0.0011517 0.00170811 1.69281)
(-0.00135283 0.00152851 1.64509)
(1.27828e-08 7.70658e-07 0.121911)
(-8.38762e-07 1.15148e-06 0.127949)
(-1.0432e-06 9.81723e-07 0.132815)
(-7.57352e-07 6.92296e-07 0.136232)
(-2.81881e-07 5.07654e-07 0.137993)
(2.78342e-07 5.074e-07 0.137993)
(7.53912e-07 6.91488e-07 0.136232)
(1.03997e-06 9.80444e-07 0.132815)
(8.35725e-07 1.14971e-06 0.127949)
(-1.53121e-08 7.68592e-07 0.121911)
(1.10445e-05 1.45332e-05 0.353499)
(7.78469e-06 1.87235e-05 0.370013)
(5.17688e-06 2.13794e-05 0.383312)
(3.09709e-06 2.30572e-05 0.392636)
(1.02055e-06 2.39066e-05 0.397438)
(-1.03307e-06 2.39059e-05 0.397438)
(-3.10922e-06 2.30548e-05 0.392636)
(-5.18824e-06 2.13757e-05 0.383312)
(-7.79515e-06 1.87185e-05 0.370013)
(-1.10533e-05 1.45274e-05 0.353499)