/*--------------------------------*- C++ -*----------------------------------*\
| =========                 |                                                 |
| \\      /  F ield         | OpenFOAM: The Open Source CFD Toolbox           |
|  \\    /   O peration     | Version:  2106                                  |
|   \\  /    A nd           | Website:  www.openfoam.com                      |
|    \\/     M anipulation  |                                                 |
\*---------------------------------------------------------------------------*/
FoamFile
{
    version     2.0;
    format      ascii;
    arch        "LSB;label=32;scalar=64";
    class       volVectorField;
    location    "0.15";
    object      U;
}
// * * * * * * * * * * * * * * * * * * * * * * * * * * * * * * * * * * * * * //

dimensions      [0 1 -1 0 0 0 0];

internalField   nonuniform List<vector> 
10000
(
(0.0625378 0.073701 0.345205)
(0.0533302 0.0838149 0.359697)
(0.0398287 0.0929571 0.371074)
(0.0247066 0.0993334 0.378932)
(0.00837291 0.10263 0.382925)
(-0.00837293 0.10263 0.382925)
(-0.0247067 0.0993334 0.378932)
(-0.0398288 0.0929571 0.371074)
(-0.0533303 0.0838149 0.359697)
(-0.0625378 0.073701 0.345205)
(0.171348 0.203324 0.728519)
(0.144584 0.230365 0.748224)
(0.107913 0.254138 0.762913)
(0.0667506 0.270585 0.772844)
(0.0225925 0.279064 0.777811)
(-0.0225926 0.279064 0.777811)
(-0.0667507 0.270585 0.772844)
(-0.107913 0.254138 0.762913)
(-0.144584 0.230365 0.748224)
(-0.171348 0.203324 0.728519)
(0.2205 0.261907 0.925043)
(0.183887 0.293027 0.940944)
(0.13631 0.320177 0.952073)
(0.0838709 0.338719 0.959417)
(0.0283124 0.348208 0.963021)
(-0.0283125 0.348208 0.963021)
(-0.0838709 0.338719 0.959417)
(-0.13631 0.320177 0.952073)
(-0.183887 0.293027 0.940944)
(-0.2205 0.261907 0.925043)
(0.23347 0.276912 1.02458)
(0.192647 0.305686 1.03513)
(0.14182 0.330828 1.04184)
(0.0868124 0.347768 1.04612)
(0.0292311 0.356371 1.04817)
(-0.0292312 0.356371 1.04817)
(-0.0868125 0.347768 1.04612)
(-0.14182 0.330828 1.04184)
(-0.192647 0.305686 1.03513)
(-0.23347 0.276912 1.02458)
(0.22911 0.271316 1.07305)
(0.187308 0.295676 1.07898)
(0.13704 0.317087 1.08209)
(0.0834929 0.331344 1.08394)
(0.0280493 0.338525 1.08477)
(-0.0280494 0.338525 1.08477)
(-0.083493 0.331344 1.08394)
(-0.13704 0.317087 1.08209)
(-0.187308 0.295676 1.07898)
(-0.22911 0.271316 1.07305)
(0.215601 0.254926 1.09392)
(0.174726 0.274247 1.09637)
(0.127095 0.291383 1.09691)
(0.0770882 0.302682 1.09706)
(0.0258417 0.308325 1.09706)
(-0.0258418 0.308325 1.09706)
(-0.0770883 0.302682 1.09706)
(-0.127095 0.291383 1.09691)
(-0.174726 0.274247 1.09637)
(-0.215601 0.254926 1.09392)
(0.196967 0.232378 1.10001)
(0.158218 0.246597 1.10003)
(0.114445 0.259371 1.09891)
(0.0691157 0.267742 1.09799)
(0.0231207 0.27189 1.09747)
(-0.0231208 0.27189 1.09747)
(-0.0691159 0.267742 1.09799)
(-0.114445 0.259371 1.09891)
(-0.158218 0.246597 1.10003)
(-0.196967 0.232378 1.10001)
(0.175786 0.206692 1.09855)
(0.13994 0.216079 1.097)
(0.100695 0.22469 1.09491)
(0.0605682 0.230339 1.09337)
(0.0202218 0.233131 1.09257)
(-0.020222 0.233131 1.09257)
(-0.0605684 0.230339 1.09337)
(-0.100695 0.22469 1.09491)
(-0.13994 0.216078 1.097)
(-0.175786 0.206692 1.09855)
(0.153756 0.179869 1.09365)
(0.121403 0.184844 1.09112)
(0.0869381 0.189648 1.08853)
(0.0521045 0.192908 1.08671)
(0.0173654 0.194533 1.08579)
(-0.0173656 0.194533 1.08579)
(-0.0521047 0.192908 1.08671)
(-0.0869383 0.189648 1.08853)
(-0.121404 0.184844 1.09112)
(-0.153756 0.179869 1.09365)
(0.132124 0.153483 1.08764)
(0.103887 0.152999 1.08454)
(0.0738638 0.154872 1.08177)
(0.0440998 0.156278 1.07988)
(0.0146711 0.156999 1.07894)
(-0.0146714 0.156999 1.07894)
(-0.0441001 0.156278 1.07988)
(-0.073864 0.154872 1.08177)
(-0.103887 0.152999 1.08454)
(-0.132124 0.153483 1.08764)
(0.011068 0.0141526 0.269941)
(0.00929063 0.0174078 0.282387)
(0.0070167 0.0200187 0.292575)
(0.00443955 0.0218086 0.299668)
(0.00151896 0.0227407 0.3033)
(-0.00151898 0.0227407 0.3033)
(-0.00443957 0.0218086 0.299668)
(-0.00701672 0.0200187 0.292575)
(-0.00929065 0.0174077 0.282387)
(-0.011068 0.0141526 0.269941)
(0.0526614 0.0638082 0.639578)
(0.0451491 0.0767068 0.661995)
(0.0345247 0.0877377 0.679966)
(0.0218108 0.0955398 0.692328)
(0.00746165 0.0996305 0.698606)
(-0.00746171 0.0996305 0.698607)
(-0.0218108 0.0955398 0.692329)
(-0.0345248 0.0877377 0.679966)
(-0.0451491 0.0767067 0.661995)
(-0.0526614 0.0638081 0.639578)
(0.0930859 0.11136 0.891657)
(0.0792183 0.131457 0.91598)
(0.0602014 0.148654 0.935035)
(0.0377815 0.160747 0.947977)
(0.0128828 0.167049 0.954495)
(-0.0128829 0.167049 0.954495)
(-0.0377816 0.160747 0.947977)
(-0.0602015 0.148654 0.935035)
(-0.0792184 0.131457 0.91598)
(-0.0930859 0.11136 0.891657)
(0.125176 0.148674 1.06207)
(0.105493 0.172602 1.08423)
(0.079564 0.192946 1.10113)
(0.0496111 0.207119 1.11243)
(0.0168614 0.214454 1.11807)
(-0.0168616 0.214454 1.11807)
(-0.0496112 0.207119 1.11243)
(-0.0795641 0.192946 1.10113)
(-0.105493 0.172602 1.08423)
(-0.125176 0.148674 1.06207)
(0.146462 0.173005 1.17478)
(0.122207 0.197698 1.19287)
(0.0914819 0.218513 1.20619)
(0.0566986 0.232871 1.21494)
(0.0192118 0.240247 1.21924)
(-0.019212 0.240247 1.21924)
(-0.0566988 0.23287 1.21494)
(-0.0914821 0.218513 1.20619)
(-0.122208 0.197698 1.19287)
(-0.146462 0.173005 1.17478)
(0.157503 0.185133 1.24648)
(0.130125 0.208277 1.25981)
(0.0967042 0.227575 1.26917)
(0.0595951 0.240758 1.27513)
(0.0201358 0.247482 1.27801)
(-0.020136 0.247482 1.27801)
(-0.0595953 0.240758 1.27513)
(-0.0967044 0.227575 1.26917)
(-0.130125 0.208277 1.25981)
(-0.157503 0.185133 1.24648)
(0.159843 0.186968 1.2893)
(0.130754 0.206981 1.29794)
(0.0964946 0.223431 1.30355)
(0.0591485 0.234568 1.30693)
(0.0199315 0.240211 1.3085)
(-0.0199317 0.240211 1.3085)
(-0.0591488 0.234568 1.30693)
(-0.0964948 0.223431 1.30355)
(-0.130754 0.206981 1.29794)
(-0.159843 0.186968 1.2893)
(0.155243 0.180635 1.31218)
(0.125743 0.196547 1.31668)
(0.0921899 0.20937 1.31909)
(0.0562337 0.217994 1.32032)
(0.0189031 0.222342 1.32081)
(-0.0189034 0.222342 1.32081)
(-0.056234 0.217994 1.32032)
(-0.0921901 0.20937 1.31909)
(-0.125744 0.196547 1.31668)
(-0.155243 0.180635 1.31218)
(0.145446 0.168154 1.32176)
(0.116748 0.179459 1.32286)
(0.085075 0.188283 1.3228)
(0.0516596 0.194237 1.3224)
(0.0173267 0.197238 1.32209)
(-0.0173271 0.197238 1.32209)
(-0.05166 0.194237 1.3224)
(-0.0850753 0.188283 1.3228)
(-0.116748 0.179459 1.32286)
(-0.145446 0.168154 1.32176)
(0.132178 0.152135 1.32297)
(0.105457 0.157062 1.32149)
(0.0762375 0.162002 1.31972)
(0.0460701 0.16539 1.31823)
(0.0154162 0.167102 1.31739)
(-0.0154167 0.167102 1.31739)
(-0.0460705 0.16539 1.31823)
(-0.0762378 0.162002 1.31972)
(-0.105457 0.157062 1.32149)
(-0.132178 0.152135 1.32297)
(0.00100096 0.00111057 0.165626)
(0.00102522 0.00142325 0.174333)
(0.000802073 0.00180063 0.181584)
(0.000536943 0.00208142 0.186716)
(0.000187299 0.00223699 0.189372)
(-0.000187317 0.00223699 0.189372)
(-0.000536961 0.00208142 0.186716)
(-0.000802093 0.00180062 0.181584)
(-0.00102524 0.00142324 0.174333)
(-0.00100098 0.00111055 0.165626)
(0.0162811 0.0188931 0.463721)
(0.0146477 0.0230234 0.484877)
(0.0114602 0.0269293 0.502204)
(0.00735545 0.0298113 0.51436)
(0.00253397 0.031358 0.520618)
(-0.00253402 0.031358 0.520618)
(-0.0073555 0.0298113 0.51436)
(-0.0114603 0.0269293 0.502204)
(-0.0146477 0.0230234 0.484877)
(-0.0162811 0.018893 0.463721)
(0.0364347 0.0424401 0.717407)
(0.0321322 0.0508527 0.745923)
(0.0249215 0.0585421 0.768877)
(0.0158525 0.0641474 0.78483)
(0.00543919 0.0671267 0.792995)
(-0.00543927 0.0671267 0.792995)
(-0.0158526 0.0641474 0.78483)
(-0.0249216 0.0585421 0.768877)
(-0.0321323 0.0508527 0.745923)
(-0.0364347 0.04244 0.717407)
(0.0573907 0.0669383 0.924766)
(0.0498694 0.0789605 0.956155)
(0.0383436 0.0897146 0.980931)
(0.0242132 0.0974543 0.997962)
(0.0082788 0.101533 1.00662)
(-0.00827892 0.101533 1.00662)
(-0.0242133 0.0974542 0.997962)
(-0.0383437 0.0897145 0.980931)
(-0.0498696 0.0789604 0.956155)
(-0.0573908 0.0669382 0.924766)
(0.0751554 0.0875979 1.08851)
(0.0644669 0.10175 1.1193)
(0.0491548 0.114199 1.14305)
(0.0308385 0.123051 1.15917)
(0.0105105 0.127679 1.16729)
(-0.0105107 0.127679 1.16729)
(-0.0308386 0.123051 1.15917)
(-0.049155 0.114199 1.14305)
(-0.0644671 0.10175 1.1193)
(-0.0751556 0.0875978 1.08851)
(0.0879771 0.102318 1.21357)
(0.0745687 0.117009 1.24134)
(0.0564038 0.12973 1.26222)
(0.0351727 0.138676 1.27616)
(0.0119522 0.143318 1.28312)
(-0.0119523 0.143318 1.28312)
(-0.0351729 0.138676 1.27616)
(-0.056404 0.12973 1.26222)
(-0.0745689 0.117008 1.24134)
(-0.0879773 0.102318 1.21357)
(0.0954682 0.110672 1.30575)
(0.0799982 0.124512 1.32911)
(0.0600472 0.136299 1.34614)
(0.0372323 0.144505 1.3573)
(0.0126166 0.148734 1.36281)
(-0.0126169 0.148734 1.36281)
(-0.0372325 0.144505 1.3573)
(-0.0600475 0.136299 1.34614)
(-0.0799984 0.124511 1.32911)
(-0.0954684 0.110672 1.30575)
(0.0979119 0.113023 1.37102)
(0.0811424 0.12493 1.38943)
(0.0604623 0.134873 1.40238)
(0.0372905 0.141738 1.41069)
(0.0126032 0.145257 1.41472)
(-0.0126035 0.145257 1.41472)
(-0.0372908 0.141738 1.41069)
(-0.0604626 0.134873 1.40238)
(-0.0811427 0.12493 1.38943)
(-0.0979121 0.113023 1.37102)
(0.0959897 0.110152 1.41502)
(0.0787308 0.119364 1.42864)
(0.058248 0.126831 1.43785)
(0.0357382 0.131973 1.44358)
(0.0120474 0.134601 1.4463)
(-0.0120478 0.134601 1.4463)
(-0.0357385 0.131973 1.44358)
(-0.0582483 0.126831 1.43785)
(-0.078731 0.119364 1.42863)
(-0.0959899 0.110152 1.41502)
(0.0906832 0.10368 1.44274)
(0.0737122 0.108676 1.45239)
(0.0540202 0.113341 1.45853)
(0.0329501 0.116556 1.46217)
(0.0110759 0.118194 1.46385)
(-0.0110763 0.118194 1.46385)
(-0.0329504 0.116556 1.46217)
(-0.0540205 0.113341 1.45853)
(-0.0737125 0.108676 1.45239)
(-0.0906834 0.10368 1.44274)
(0.000638957 0.000848921 0.149439)
(0.000492729 0.00106553 0.156834)
(0.000333478 0.00121626 0.162839)
(0.000204169 0.00130375 0.167057)
(6.79536e-05 0.00134674 0.169234)
(-6.79685e-05 0.00134674 0.169234)
(-0.000204184 0.00130375 0.167057)
(-0.000333495 0.00121625 0.162839)
(-0.000492746 0.00106552 0.156834)
(-0.000638974 0.000848907 0.149439)
(0.00585543 0.00704363 0.427022)
(0.00505563 0.00868028 0.446442)
(0.0038709 0.0100877 0.462114)
(0.00246198 0.0110891 0.473079)
(0.000844245 0.0116196 0.478722)
(-0.000844287 0.0116196 0.478722)
(-0.00246203 0.011089 0.473079)
(-0.00387095 0.0100877 0.462114)
(-0.00505568 0.00868025 0.446442)
(-0.00585548 0.0070436 0.427022)
(0.014027 0.0166387 0.674436)
(0.0121725 0.0202195 0.702438)
(0.00938182 0.0233463 0.724815)
(0.00595938 0.0255975 0.740377)
(0.00204367 0.0267902 0.748355)
(-0.00204374 0.0267902 0.748355)
(-0.00595945 0.0255975 0.740377)
(-0.0093819 0.0233462 0.724815)
(-0.0121726 0.0202195 0.702438)
(-0.014027 0.0166387 0.674436)
(0.0235603 0.027778 0.887958)
(0.0203658 0.0332978 0.920868)
(0.0156661 0.0381139 0.946822)
(0.00991484 0.041576 0.964724)
(0.00339447 0.043403 0.973855)
(-0.00339457 0.043403 0.973855)
(-0.00991494 0.0415759 0.964724)
(-0.0156662 0.0381138 0.946822)
(-0.0203659 0.0332977 0.920868)
(-0.0235604 0.0277779 0.887958)
(0.0327367 0.0384232 1.06659)
(0.028095 0.045406 1.10102)
(0.0215052 0.0514561 1.12773)
(0.0135472 0.0557778 1.14596)
(0.00462755 0.0580463 1.1552)
(-0.00462767 0.0580463 1.1552)
(-0.0135474 0.0557778 1.14596)
(-0.0215054 0.051456 1.12773)
(-0.0280952 0.0454059 1.10102)
(-0.0327368 0.0384232 1.06659)
(0.0404169 0.0472324 1.21153)
(0.0343855 0.0549796 1.2447)
(0.0261571 0.0616191 1.26994)
(0.0163942 0.0663231 1.28696)
(0.00558598 0.0687776 1.29552)
(-0.00558613 0.0687776 1.29552)
(-0.0163943 0.0663231 1.28696)
(-0.0261572 0.061619 1.26994)
(-0.0343856 0.0549796 1.2447)
(-0.040417 0.0472323 1.21153)
(0.0459581 0.0534655 1.32547)
(0.0387285 0.0612322 1.35541)
(0.0292617 0.0677926 1.37769)
(0.0182447 0.0723999 1.39251)
(0.00620045 0.0747896 1.3999)
(-0.00620064 0.0747896 1.3999)
(-0.0182449 0.0723999 1.39251)
(-0.0292619 0.0677926 1.37769)
(-0.0387286 0.0612322 1.35541)
(-0.0459583 0.0534654 1.32547)
(0.0490811 0.0568051 1.41209)
(0.0409508 0.0639045 1.43764)
(0.030728 0.0697918 1.45622)
(0.0190604 0.0738914 1.4684)
(0.00646104 0.0760063 1.47441)
(-0.00646127 0.0760063 1.47441)
(-0.0190607 0.0738914 1.4684)
(-0.0307282 0.0697918 1.45622)
(-0.040951 0.0639044 1.43764)
(-0.0490813 0.0568051 1.41209)
(0.0498158 0.0572615 1.47546)
(0.0411623 0.0631286 1.49632)
(0.0306698 0.0678586 1.51115)
(0.0189243 0.0711352 1.5207)
(0.00639792 0.0728179 1.52536)
(-0.00639817 0.0728179 1.52536)
(-0.0189245 0.0711352 1.5207)
(-0.03067 0.0678586 1.51115)
(-0.0411625 0.0631286 1.49632)
(-0.0498159 0.0572615 1.47546)
(0.0484782 0.0554973 1.51957)
(0.0396879 0.0591381 1.53643)
(0.0292921 0.0623415 1.54794)
(0.0179642 0.0645516 1.55517)
(0.00605498 0.0656807 1.55863)
(-0.00605525 0.0656807 1.55863)
(-0.0179645 0.0645516 1.55517)
(-0.0292923 0.0623415 1.54793)
(-0.0396881 0.0591381 1.53643)
(-0.0484783 0.0554973 1.51957)
(8.9042e-05 9.18133e-05 0.140605)
(8.70236e-05 0.000123267 0.147642)
(6.45513e-05 0.000159145 0.153347)
(4.41259e-05 0.000184607 0.157359)
(1.52302e-05 0.000198964 0.159431)
(-1.52426e-05 0.000198963 0.159431)
(-4.41386e-05 0.000184604 0.157359)
(-6.45647e-05 0.000159139 0.153347)
(-8.70378e-05 0.000123259 0.147642)
(-8.90552e-05 9.18024e-05 0.140605)
(0.00183603 0.00211729 0.405586)
(0.00164913 0.00262748 0.424441)
(0.00129183 0.00310523 0.43966)
(0.000834159 0.00346023 0.450331)
(0.000287897 0.00365264 0.455831)
(-0.000287931 0.00365264 0.455831)
(-0.000834194 0.00346023 0.450331)
(-0.00129187 0.00310522 0.43966)
(-0.00164916 0.00262746 0.424441)
(-0.00183607 0.00211727 0.405586)
(0.00495642 0.00575046 0.646223)
(0.00440368 0.00703944 0.674001)
(0.00344656 0.00821848 0.69625)
(0.00221133 0.00909268 0.711772)
(0.000761794 0.0095628 0.719746)
(-0.000761849 0.0095628 0.719746)
(-0.00221138 0.00909267 0.711772)
(-0.00344662 0.00821847 0.69625)
(-0.00440374 0.00703942 0.674001)
(-0.00495648 0.00575041 0.646223)
(0.00897491 0.0104283 0.858868)
(0.00790325 0.0126023 0.892344)
(0.00615912 0.0145636 0.918862)
(0.00393169 0.0160078 0.937236)
(0.00135154 0.0167797 0.946633)
(-0.00135161 0.0167797 0.946633)
(-0.00393177 0.0160078 0.937236)
(-0.0061592 0.0145636 0.918862)
(-0.00790333 0.0126023 0.892344)
(-0.00897499 0.0104283 0.858868)
(0.0132025 0.0153278 1.04161)
(0.0115215 0.018274 1.07763)
(0.00892774 0.0208996 1.10575)
(0.0056704 0.0228168 1.12507)
(0.00194463 0.0238354 1.13489)
(-0.00194472 0.0238354 1.13489)
(-0.0056705 0.0228168 1.12507)
(-0.00892784 0.0208996 1.10575)
(-0.0115216 0.018274 1.07763)
(-0.0132026 0.0153278 1.04161)
(0.0170773 0.0197812 1.1943)
(0.0147634 0.0232418 1.23007)
(0.0113659 0.0262863 1.25755)
(0.00718188 0.0284894 1.27623)
(0.00245683 0.0296526 1.28566)
(-0.00245695 0.0296526 1.28566)
(-0.007182 0.0284893 1.27623)
(-0.011366 0.0262863 1.25755)
(-0.0147635 0.0232418 1.23007)
(-0.0170774 0.0197812 1.1943)
(0.0201964 0.0233156 1.31823)
(0.0172892 0.0269601 1.35161)
(0.0132189 0.0301195 1.37679)
(0.00830911 0.0323848 1.39371)
(0.00283512 0.0335737 1.4022)
(-0.00283526 0.0335737 1.4022)
(-0.00830925 0.0323848 1.39371)
(-0.0132191 0.0301194 1.37679)
(-0.0172894 0.0269601 1.35161)
(-0.0201965 0.0233156 1.31823)
(0.0223072 0.0256351 1.41581)
(0.0189045 0.0291182 1.44541)
(0.0143518 0.0320852 1.46734)
(0.00897357 0.0341932 1.48189)
(0.00305377 0.0352932 1.48914)
(-0.00305393 0.0352932 1.48914)
(-0.00897373 0.0341932 1.48189)
(-0.0143519 0.0320852 1.46734)
(-0.0189047 0.0291182 1.44541)
(-0.0223073 0.025635 1.41581)
(0.0233176 0.0266189 1.49008)
(0.0195618 0.029628 1.51535)
(0.0147386 0.0321212 1.53375)
(0.00916326 0.0338786 1.5458)
(0.00310939 0.0347901 1.55175)
(-0.00310957 0.0347901 1.55175)
(-0.00916343 0.0338786 1.5458)
(-0.0147388 0.0321212 1.53375)
(-0.0195619 0.029628 1.51535)
(-0.0233177 0.0266188 1.49007)
(0.0232952 0.0265087 1.54418)
(0.0193271 0.0285233 1.56573)
(0.0144091 0.0302893 1.58086)
(0.0088971 0.0315213 1.59058)
(0.00300874 0.0321553 1.59531)
(-0.00300893 0.0321553 1.59531)
(-0.00889729 0.0315213 1.59058)
(-0.0144093 0.0302893 1.58086)
(-0.0193272 0.0285233 1.56573)
(-0.0232953 0.0265087 1.54418)
(6.46712e-05 8.86375e-05 0.138719)
(4.45889e-05 0.000112554 0.145614)
(2.63207e-05 0.000126323 0.151173)
(1.52399e-05 0.000132678 0.155076)
(4.82271e-06 0.000135469 0.15709)
(-4.83283e-06 0.000135468 0.15709)
(-1.52501e-05 0.000132676 0.155076)
(-2.63312e-05 0.000126319 0.151173)
(-4.45995e-05 0.000112547 0.145614)
(-6.46812e-05 8.86291e-05 0.138719)
(0.000724196 0.000873411 0.400185)
(0.000615726 0.00108353 0.418738)
(0.00046581 0.00125833 0.433656)
(0.000295056 0.00138135 0.444106)
(0.000100891 0.00144636 0.449488)
(-0.000100918 0.00144636 0.449488)
(-0.000295084 0.00138134 0.444106)
(-0.000465839 0.00125832 0.433656)
(-0.000615755 0.00108351 0.418738)
(-0.000724223 0.00087339 0.400185)
(0.00194588 0.00230671 0.63849)
(0.00168663 0.0028328 0.666005)
(0.00130027 0.00328818 0.687985)
(0.000827584 0.00361813 0.703315)
(0.00028403 0.00379375 0.711189)
(-0.000284073 0.00379375 0.711189)
(-0.000827628 0.00361812 0.703315)
(-0.00130031 0.00328817 0.687985)
(-0.00168668 0.00283278 0.666005)
(-0.00194592 0.00230668 0.63849)
(0.00357758 0.00421087 0.850534)
(0.00311089 0.0051174 0.883996)
(0.00240737 0.00591056 0.910468)
(0.00153166 0.00648842 0.928814)
(0.000525753 0.00679597 0.938201)
(-0.000525812 0.00679597 0.938201)
(-0.00153172 0.00648841 0.928814)
(-0.00240743 0.00591054 0.910468)
(-0.00311095 0.00511737 0.883995)
(-0.00357764 0.00421084 0.850534)
(0.00538217 0.0063038 1.03449)
(0.00466773 0.00757086 1.07089)
(0.00360693 0.00867924 1.09932)
(0.00228915 0.00948511 1.11887)
(0.000784888 0.00991277 1.12882)
(-0.000784962 0.00991277 1.12882)
(-0.00228923 0.00948509 1.11887)
(-0.003607 0.00867922 1.09932)
(-0.00466781 0.00757083 1.07089)
(-0.00538224 0.00630375 1.03449)
(0.00713416 0.0083185 1.18997)
(0.00615261 0.00985754 1.2266)
(0.0047356 0.0111955 1.25478)
(0.00299458 0.012163 1.27398)
(0.00102495 0.0126743 1.2837)
(-0.00102504 0.0126743 1.2837)
(-0.00299467 0.012163 1.27398)
(-0.00473569 0.0111955 1.25478)
(-0.00615269 0.00985751 1.2266)
(-0.00713424 0.00831846 1.18997)
(0.00864224 0.0100304 1.31788)
(0.0073982 0.0117068 1.35258)
(0.00566402 0.0131489 1.37885)
(0.00356634 0.0141844 1.39657)
(0.00121805 0.0147289 1.40547)
(-0.00121816 0.0147289 1.40547)
(-0.00356644 0.0141844 1.39657)
(-0.00566412 0.0131489 1.37885)
(-0.0073983 0.0117068 1.35258)
(-0.00864233 0.0100304 1.31788)
(0.00976147 0.0112682 1.42019)
(0.00828559 0.0129255 1.4515)
(0.00630477 0.0143306 1.47483)
(0.00395111 0.0153314 1.4904)
(0.00134626 0.0158549 1.49817)
(-0.00134638 0.0158549 1.49817)
(-0.00395122 0.0153314 1.4904)
(-0.00630488 0.0143306 1.47483)
(-0.00828569 0.0129254 1.4515)
(-0.00976156 0.0112682 1.42019)
(0.0104116 0.0119289 1.49945)
(0.00875759 0.0134123 1.52674)
(0.00661762 0.0146393 1.54677)
(0.0041249 0.0155063 1.55999)
(0.00140162 0.015957 1.56653)
(-0.00140175 0.015957 1.56653)
(-0.00412502 0.0155063 1.55999)
(-0.00661775 0.0146392 1.54677)
(-0.0087577 0.0134123 1.52674)
(-0.0104117 0.0119289 1.49944)
(0.0105881 0.0120852 1.55836)
(0.00881119 0.0131332 1.5822)
(0.00659091 0.0140402 1.59912)
(0.00408066 0.0146742 1.61007)
(0.00138186 0.015001 1.61544)
(-0.001382 0.015001 1.61544)
(-0.00408079 0.0146741 1.61007)
(-0.00659103 0.0140402 1.59912)
(-0.0088113 0.0131332 1.5822)
(-0.0105882 0.0120851 1.55836)
(5.84226e-06 5.87167e-06 0.137658)
(4.67449e-06 8.72897e-06 0.144509)
(2.57217e-06 1.13083e-05 0.15003)
(1.90817e-06 1.28811e-05 0.153909)
(6.28739e-07 1.37847e-05 0.155909)
(-6.36849e-07 1.37842e-05 0.155909)
(-1.91629e-06 1.28792e-05 0.153909)
(-2.58011e-06 1.13051e-05 0.15003)
(-4.68221e-06 8.72422e-06 0.144509)
(-5.84945e-06 5.8657e-06 0.137658)
(0.000227247 0.000263229 0.397281)
(0.00020045 0.000328982 0.415731)
(0.000155372 0.000388123 0.430562)
(0.000100111 0.000431742 0.440953)
(3.44836e-05 0.000455379 0.446305)
(-3.45052e-05 0.000455377 0.446305)
(-0.000100133 0.000431738 0.440953)
(-0.000155394 0.000388115 0.430562)
(-0.000200471 0.00032897 0.415731)
(-0.000227266 0.000263214 0.397281)
(0.00067595 0.00078513 0.634256)
(0.000597636 0.000969899 0.661669)
(0.000467224 0.00113619 0.683568)
(0.000300165 0.00125989 0.698847)
(0.000103454 0.00132664 0.706697)
(-0.000103488 0.00132664 0.706697)
(-0.000300199 0.00125989 0.698847)
(-0.000467258 0.00113618 0.683568)
(-0.000597669 0.000969881 0.661669)
(-0.000675981 0.000785108 0.634256)
(0.00131165 0.00152331 0.845668)
(0.00115696 0.00186184 0.879111)
(0.000904851 0.00216578 0.905577)
(0.00057978 0.00239155 0.923932)
(0.000199673 0.00251296 0.933326)
(-0.000199719 0.00251295 0.933326)
(-0.000579825 0.00239154 0.923932)
(-0.000904897 0.00216576 0.905577)
(-0.001157 0.00186182 0.879111)
(-0.00131169 0.00152328 0.845668)
(0.00204848 0.00237489 1.02976)
(0.00179828 0.00286903 1.06629)
(0.00140264 0.0033103 1.09485)
(0.000895818 0.00363654 1.11451)
(0.000308081 0.00381126 1.12452)
(-0.000308137 0.00381126 1.12452)
(-0.000895874 0.00363653 1.11451)
(-0.00140269 0.00331028 1.09485)
(-0.00179834 0.00286901 1.06629)
(-0.00204853 0.00237486 1.02976)
(0.00279641 0.00323275 1.18609)
(0.00243917 0.00385426 1.22306)
(0.00189418 0.00440473 1.25154)
(0.00120509 0.0048091 1.27097)
(0.000413683 0.00502465 1.28082)
(-0.00041375 0.00502465 1.28082)
(-0.00120515 0.00480909 1.27097)
(-0.00189424 0.00440471 1.25154)
(-0.00243924 0.00385424 1.22306)
(-0.00279647 0.00323272 1.18609)
(0.00347202 0.00399856 1.31547)
(0.00300539 0.00469607 1.35072)
(0.00232111 0.00530709 1.37747)
(0.00147027 0.00575255 1.39554)
(0.000503632 0.00598879 1.40463)
(-0.000503708 0.00598879 1.40463)
(-0.00147035 0.00575254 1.39554)
(-0.00232118 0.00530707 1.37747)
(-0.00300546 0.00469605 1.35072)
(-0.00347208 0.00399853 1.31547)
(0.00400613 0.00459047 1.41967)
(0.00343823 0.00529874 1.45173)
(0.00263886 0.00591041 1.4757)
(0.00166349 0.00635244 1.49173)
(0.000568428 0.00658551 1.49975)
(-0.000568514 0.00658551 1.49975)
(-0.00166357 0.00635243 1.49173)
(-0.00263895 0.00591039 1.47569)
(-0.00343831 0.00529872 1.45173)
(-0.0040062 0.00459044 1.41967)
(0.00435509 0.00495399 1.50106)
(0.00370293 0.00560491 1.52926)
(0.00282112 0.00615274 1.55007)
(0.00176823 0.00654469 1.56384)
(0.000602452 0.00674984 1.57067)
(-0.000602546 0.00674984 1.57067)
(-0.00176832 0.00654468 1.56384)
(-0.0028212 0.00615273 1.55007)
(-0.00370301 0.00560489 1.52926)
(-0.00435516 0.00495396 1.50106)
(0.00450606 0.00511296 1.56213)
(0.00378518 0.00559142 1.58705)
(0.00285227 0.00600539 1.60483)
(0.00177464 0.00629706 1.61639)
(0.000602381 0.00644816 1.62207)
(-0.000602479 0.00644816 1.62207)
(-0.00177474 0.00629705 1.61639)
(-0.00285236 0.00600538 1.60483)
(-0.00378527 0.00559141 1.58705)
(-0.00450613 0.00511295 1.56213)
(7.63229e-06 1.15828e-05 0.137433)
(4.05475e-06 1.49244e-05 0.144267)
(1.58922e-06 1.62705e-05 0.14977)
(6.72246e-07 1.65712e-05 0.153634)
(1.45864e-07 1.66055e-05 0.155628)
(-1.5214e-07 1.6605e-05 0.155628)
(-6.78601e-07 1.65697e-05 0.153634)
(-1.59502e-06 1.6268e-05 0.14977)
(-4.06028e-06 1.49212e-05 0.144267)
(-7.63733e-06 1.15786e-05 0.137433)
(9.66997e-05 0.000118653 0.396545)
(7.96643e-05 0.00014797 0.414947)
(5.89697e-05 0.000170892 0.429731)
(3.69499e-05 0.000186596 0.440087)
(1.25503e-05 0.000194784 0.445421)
(-1.25669e-05 0.000194783 0.445421)
(-3.69668e-05 0.000186592 0.440087)
(-5.89851e-05 0.000170885 0.429731)
(-7.96792e-05 0.000147962 0.414947)
(-9.67133e-05 0.000118643 0.396545)
(0.000275294 0.000328379 0.633096)
(0.000235987 0.000405904 0.660455)
(0.000180761 0.000471328 0.6823)
(0.000114732 0.000518468 0.697539)
(3.93076e-05 0.000543514 0.705368)
(-3.93337e-05 0.000543512 0.705368)
(-0.000114758 0.000518463 0.697539)
(-0.000180786 0.000471319 0.6823)
(-0.00023601 0.000405892 0.660455)
(-0.000275316 0.000328363 0.633096)
(0.000530013 0.000625143 0.844291)
(0.000459626 0.000765981 0.877705)
(0.000355525 0.000887889 0.90414)
(0.000226361 0.000976919 0.922472)
(7.77206e-05 0.00102442 0.931855)
(-7.77551e-05 0.00102442 0.931855)
(-0.000226395 0.000976912 0.922472)
(-0.000355558 0.000887879 0.90414)
(-0.000459657 0.000765965 0.877705)
(-0.000530042 0.000625124 0.844291)
(0.000831819 0.000974403 1.02843)
(0.00072291 0.00118167 1.06499)
(0.00056032 0.00136251 1.09358)
(0.00035664 0.00149493 1.11325)
(0.000122457 0.00156554 1.12327)
(-0.000122499 0.00156554 1.12327)
(-0.000356682 0.00149492 1.11325)
(-0.000560361 0.0013625 1.09358)
(-0.000722948 0.00118165 1.06499)
(-0.000831855 0.000974382 1.02843)
(0.0011469 0.00133611 1.1851)
(0.000994354 0.0016007 1.22218)
(0.000769462 0.00183135 1.25076)
(0.000488712 0.00199983 1.27026)
(0.00016764 0.00208944 1.28014)
(-0.000167689 0.00208944 1.28014)
(-0.00048876 0.00199982 1.27026)
(-0.00076951 0.00183134 1.25076)
(-0.000994399 0.00160068 1.22218)
(-0.00114694 0.00133609 1.1851)
(0.00144086 0.00166976 1.31507)
(0.00124281 0.00197198 1.35053)
(0.000958125 0.00223372 1.37745)
(0.000606544 0.00242391 1.39565)
(0.000207721 0.00252466 1.40482)
(-0.000207777 0.00252466 1.40482)
(-0.000606599 0.0024239 1.39565)
(-0.000958179 0.0022337 1.37745)
(-0.00124286 0.00197196 1.35053)
(-0.0014409 0.00166974 1.31507)
(0.00168254 0.00193833 1.42007)
(0.0014413 0.0022511 1.45244)
(0.00110548 0.00251898 1.47666)
(0.00069694 0.00271219 1.49289)
(0.000238176 0.00281403 1.50101)
(-0.000238238 0.00281403 1.50101)
(-0.000697001 0.00271219 1.49289)
(-0.00110554 0.00251897 1.47666)
(-0.00144135 0.00225108 1.45244)
(-0.00168259 0.00193831 1.42007)
(0.00184979 0.00211388 1.50239)
(0.00157158 0.00240725 1.53099)
(0.00119747 0.00265282 1.55213)
(0.000750955 0.00282832 1.56613)
(0.000255938 0.00292017 1.57309)
(-0.000256005 0.00292016 1.57309)
(-0.000751021 0.00282831 1.56613)
(-0.00119754 0.00265281 1.55213)
(-0.00157164 0.00240723 1.53099)
(-0.00184985 0.00211386 1.50239)
(0.001933 0.00220221 1.56444)
(0.00162374 0.00242357 1.58984)
(0.00122441 0.00261399 1.60801)
(0.000762458 0.00274812 1.61984)
(0.000258921 0.00281762 1.62566)
(-0.000258991 0.00281762 1.62566)
(-0.000762528 0.00274811 1.61984)
(-0.00122447 0.00261398 1.608)
(-0.0016238 0.00242357 1.58984)
(-0.00193306 0.00220219 1.56444)
(-3.21813e-07 -3.25375e-07 0.13729)
(-6.2657e-07 -1.19286e-07 0.144117)
(-7.50259e-07 -8.93379e-08 0.149615)
(-4.74511e-07 -1.48605e-07 0.153476)
(-1.7525e-07 -1.81209e-07 0.155468)
(1.70578e-07 -1.81544e-07 0.155468)
(4.69947e-07 -1.49635e-07 0.153476)
(7.46006e-07 -9.10253e-08 0.149615)
(6.22654e-07 -1.21551e-07 0.144117)
(3.18447e-07 -3.28175e-07 0.13729)
(2.8583e-05 3.34681e-05 0.396127)
(2.45278e-05 4.2298e-05 0.414512)
(1.86883e-05 4.98447e-05 0.429281)
(1.19684e-05 5.53279e-05 0.439627)
(4.10197e-06 5.82845e-05 0.444956)
(-4.11434e-06 5.82836e-05 0.444956)
(-1.19805e-05 5.53251e-05 0.439627)
(-1.86997e-05 4.98403e-05 0.429281)
(-2.45383e-05 4.22921e-05 0.414512)
(-2.85922e-05 3.34611e-05 0.396127)
(9.28507e-05 0.000108137 0.632452)
(8.13875e-05 0.000134785 0.659791)
(6.33663e-05 0.000158301 0.681617)
(4.06657e-05 0.000175766 0.696845)
(1.40011e-05 0.000185194 0.704667)
(-1.40204e-05 0.000185193 0.704667)
(-4.06847e-05 0.000175762 0.696845)
(-6.33843e-05 0.000158294 0.681617)
(-8.14042e-05 0.000134776 0.659791)
(-9.28656e-05 0.000108127 0.632452)
(0.000189579 0.000220108 0.843507)
(0.000166936 0.000271482 0.876908)
(0.000130631 0.000317217 0.903332)
(8.38145e-05 0.000351324 0.921659)
(2.88787e-05 0.000369716 0.93104)
(-2.8904e-05 0.000369714 0.93104)
(-8.38394e-05 0.000351319 0.921659)
(-0.000130655 0.000317209 0.903332)
(-0.000166958 0.000271471 0.876908)
(-0.000189599 0.000220095 0.843507)
(0.000308182 0.000356666 1.02762)
(0.000271112 0.000435064 1.06419)
(0.000212142 0.000504904 1.09278)
(0.000135884 0.000556901 1.11246)
(4.67949e-05 0.000584873 1.12249)
(-4.68256e-05 0.000584871 1.12249)
(-0.000135915 0.000556896 1.11246)
(-0.000212171 0.000504895 1.09278)
(-0.00027114 0.000435052 1.06419)
(-0.000308206 0.000356652 1.02762)
(0.000435525 0.000502195 1.18438)
(0.000381655 0.000604913 1.22149)
(0.000297859 0.000696028 1.25011)
(0.000190264 0.000763565 1.26964)
(6.54403e-05 0.000799768 1.27953)
(-6.54758e-05 0.000799766 1.27953)
(-0.000190299 0.000763559 1.26964)
(-0.000297893 0.000696018 1.25011)
(-0.000381687 0.0006049 1.22149)
(-0.000435555 0.00050218 1.18438)
(0.000557667 0.00064026 1.31455)
(0.000485836 0.000760027 1.35008)
(0.000377549 0.000865411 1.37708)
(0.000240298 0.000943027 1.39533)
(8.25036e-05 0.000984447 1.40453)
(-8.25435e-05 0.000984445 1.40453)
(-0.000240337 0.000943021 1.39533)
(-0.000377587 0.000865402 1.37708)
(-0.000485872 0.000760014 1.35008)
(-0.0005577 0.000640246 1.31455)
(0.000661487 0.000755315 1.41984)
(0.000572109 0.000881462 1.45233)
(0.000442148 0.00099114 1.47666)
(0.00028017 0.00107122 1.49296)
(9.59774e-05 0.00111371 1.50112)
(-9.60213e-05 0.00111371 1.50112)
(-0.000280213 0.00107122 1.49296)
(-0.000442189 0.000991132 1.47666)
(-0.000572149 0.000881451 1.45233)
(-0.000661523 0.000755302 1.41984)
(0.00073728 0.000835398 1.50252)
(0.0006321 0.000955736 1.53128)
(0.000485011 0.00105775 1.55255)
(0.000305575 0.00113138 1.56666)
(0.000104372 0.00117013 1.57367)
(-0.00010442 0.00117013 1.57367)
(-0.000305622 0.00113138 1.56666)
(-0.000485056 0.00105775 1.55255)
(-0.000632143 0.000955726 1.53128)
(-0.000737319 0.000835387 1.50252)
(0.000779971 0.0008827 1.56496)
(0.000660188 0.000975719 1.59056)
(0.000500862 0.0010556 1.60889)
(0.000313135 0.00111219 1.62084)
(0.000106533 0.00114162 1.62673)
(-0.000106583 0.00114162 1.62673)
(-0.000313185 0.00111219 1.62084)
(-0.000500909 0.00105559 1.60889)
(-0.000660233 0.000975712 1.59056)
(-0.000780012 0.00088269 1.56496)
(9.34854e-07 1.67758e-06 0.137265)
(2.3795e-07 2.20393e-06 0.144091)
(-1.32601e-07 2.31803e-06 0.149586)
(-1.69447e-07 2.26198e-06 0.153445)
(-7.7597e-08 2.20304e-06 0.155435)
(7.42371e-08 2.20277e-06 0.155435)
(1.662e-07 2.26122e-06 0.153445)
(1.29608e-07 2.31684e-06 0.149586)
(-2.40597e-07 2.20237e-06 0.144091)
(-9.3706e-07 1.67577e-06 0.137265)
(1.31362e-05 1.66015e-05 0.396032)
(1.02905e-05 2.08758e-05 0.414409)
(7.32873e-06 2.39476e-05 0.42917)