/*--------------------------------*- C++ -*----------------------------------*\
| =========                 |                                                 |
| \\      /  F ield         | OpenFOAM: The Open Source CFD Toolbox           |
|  \\    /   O peration     | Version:  2106                                  |
|   \\  /    A nd           | Website:  www.openfoam.com                      |
|    \\/     M anipulation  |                                                 |
\*---------------------------------------------------------------------------*/
FoamFile
{
    version     2.0;
    format      ascii;
    arch        "LSB;label=32;scalar=64";
    class       volVectorField;
    location    "0.37";
    object      U;
}
// * * * * * * * * * * * * * * * * * * * * * * * * * * * * * * * * * * * * * //

dimensions      [0 1 -1 0 0 0 0];

internalField   nonuniform List<vector> 
10000
(
(0.0625633 0.0737215 0.345097)
(0.0533586 0.0838417 0.359576)
(0.039849 0.092993 0.370941)
(0.0247206 0.0993753 0.37879)
(0.00837769 0.102675 0.382778)
(-0.00837771 0.102675 0.382778)
(-0.0247207 0.0993752 0.37879)
(-0.039849 0.092993 0.370941)
(-0.0533586 0.0838417 0.359576)
(-0.0625633 0.0737215 0.345097)
(0.172031 0.204098 0.727859)
(0.145213 0.231332 0.747511)
(0.108409 0.255284 0.762152)
(0.0670718 0.271865 0.772051)
(0.0227035 0.280416 0.777001)
(-0.0227035 0.280416 0.777001)
(-0.0670719 0.271865 0.772051)
(-0.108409 0.255284 0.762152)
(-0.145213 0.231332 0.747511)
(-0.172031 0.204098 0.727859)
(0.222533 0.264242 0.923805)
(0.185735 0.295923 0.939637)
(0.137772 0.323585 0.950705)
(0.0848152 0.342507 0.958011)
(0.0286386 0.352202 0.961594)
(-0.0286387 0.352202 0.961594)
(-0.0848153 0.342507 0.958011)
(-0.137772 0.323585 0.950705)
(-0.185735 0.295923 0.939637)
(-0.222533 0.264242 0.923805)
(0.237442 0.281494 1.02295)
(0.196227 0.311315 1.03346)
(0.144649 0.337404 1.04013)
(0.0886341 0.355048 1.0444)
(0.0298598 0.364029 1.04643)
(-0.0298599 0.364029 1.04643)
(-0.0886342 0.355048 1.0444)
(-0.144649 0.337404 1.04013)
(-0.196227 0.311315 1.03346)
(-0.237442 0.281494 1.02295)
(0.235363 0.278537 1.07132)
(0.192899 0.304443 1.07728)
(0.14144 0.327244 1.08041)
(0.0863158 0.342527 1.08229)
(0.0290221 0.350258 1.08313)
(-0.0290222 0.350258 1.08313)
(-0.0863159 0.342527 1.08229)
(-0.14144 0.327244 1.08041)
(-0.192899 0.304443 1.07728)
(-0.235363 0.278537 1.07132)
(0.224198 0.264846 1.09241)
(0.182344 0.286126 1.09498)
(0.133057 0.305007 1.09563)
(0.080896 0.317586 1.09588)
(0.0271512 0.323911 1.09592)
(-0.0271513 0.323911 1.09592)
(-0.0808961 0.317586 1.09588)
(-0.133057 0.305007 1.09563)
(-0.182344 0.286126 1.09498)
(-0.224198 0.264846 1.09241)
(0.207705 0.244742 1.099)
(0.167635 0.261165 1.09927)
(0.121765 0.275882 1.09834)
(0.0737667 0.285666 1.09757)
(0.024716 0.290563 1.09714)
(-0.0247163 0.290563 1.09714)
(-0.073767 0.285666 1.09757)
(-0.121765 0.275882 1.09834)
(-0.167635 0.261165 1.09927)
(-0.207705 0.244741 1.099)
(0.188231 0.220969 1.09827)
(0.150731 0.232592 1.09708)
(0.109016 0.243146 1.09526)
(0.065824 0.250195 1.09394)
(0.0220192 0.253723 1.09324)
(-0.0220195 0.253723 1.09324)
(-0.0658243 0.250195 1.09394)
(-0.109016 0.243146 1.09526)
(-0.150731 0.232591 1.09708)
(-0.188231 0.220969 1.09827)
(0.167321 0.195334 1.09424)
(0.133018 0.202358 1.09215)
(0.0958087 0.208893 1.08991)
(0.057666 0.213385 1.08834)
(0.0192604 0.215652 1.08754)
(-0.0192607 0.215652 1.08754)
(-0.0576663 0.213385 1.08834)
(-0.0958089 0.208893 1.08991)
(-0.133019 0.202358 1.09215)
(-0.167321 0.195334 1.09424)
(0.146149 0.169487 1.08913)
(0.115707 0.170456 1.08656)
(0.0827606 0.17362 1.08417)
(0.0496278 0.175928 1.08256)
(0.0165461 0.177115 1.08175)
(-0.0165465 0.177115 1.08175)
(-0.0496281 0.175928 1.08256)
(-0.0827609 0.17362 1.08417)
(-0.115708 0.170456 1.08656)
(-0.146149 0.169487 1.08913)
(0.0111879 0.0142922 0.26669)
(0.0093988 0.0175809 0.278961)
(0.00709676 0.0202225 0.289009)
(0.00449215 0.0220335 0.296003)
(0.00153695 0.0229769 0.299583)
(-0.00153698 0.0229769 0.299583)
(-0.00449218 0.0220335 0.296003)
(-0.00709678 0.0202225 0.289009)
(-0.00939883 0.0175809 0.278961)
(-0.0111879 0.0142921 0.26669)
(0.0543115 0.0657202 0.63004)
(0.0466322 0.0790665 0.652011)
(0.0356864 0.0905013 0.669631)
(0.0225596 0.0986024 0.681748)
(0.00771983 0.102854 0.687899)
(-0.00771992 0.102854 0.687899)
(-0.0225597 0.0986024 0.681748)
(-0.0356865 0.0905013 0.669631)
(-0.0466323 0.0790665 0.652011)
(-0.0543116 0.0657202 0.63004)
(0.097496 0.116464 0.877318)
(0.0831681 0.137725 0.901175)
(0.0633078 0.155968 0.919887)
(0.0397797 0.16884 0.932598)
(0.0135719 0.175562 0.938999)
(-0.013572 0.175562 0.938999)
(-0.0397799 0.16884 0.932598)
(-0.0633079 0.155968 0.919887)
(-0.0831682 0.137725 0.901175)
(-0.0974961 0.116464 0.877318)
(0.133321 0.158089 1.0453)
(0.112754 0.184081 1.06732)
(0.0852708 0.206273 1.08417)
(0.0532739 0.221818 1.09547)
(0.0181237 0.229889 1.10112)
(-0.0181239 0.229889 1.10112)
(-0.0532741 0.221818 1.09547)
(-0.085271 0.206273 1.08417)
(-0.112754 0.184081 1.06732)
(-0.133321 0.158089 1.0453)
(0.158851 0.187293 1.15841)
(0.133183 0.214952 1.17701)
(0.100081 0.238406 1.19087)
(0.0622013 0.254712 1.20004)
(0.0211058 0.263131 1.20458)
(-0.021106 0.263131 1.20458)
(-0.0622016 0.254712 1.20004)
(-0.100081 0.238406 1.19087)
(-0.133183 0.214951 1.17701)
(-0.158851 0.187293 1.15841)
(0.174157 0.204284 1.23334)
(0.144767 0.231128 1.2481)
(0.108121 0.25369 1.25876)
(0.0668728 0.269268 1.2657)
(0.0226361 0.277267 1.2691)
(-0.0226365 0.277267 1.2691)
(-0.0668731 0.269268 1.2657)
(-0.108121 0.25369 1.25876)
(-0.144767 0.231128 1.2481)
(-0.174157 0.204284 1.23334)
(0.180332 0.210441 1.28193)
(0.148604 0.234589 1.29302)
(0.110326 0.254642 1.30074)
(0.0679247 0.2684 1.30569)
(0.0229398 0.275431 1.30808)
(-0.0229402 0.275431 1.30808)
(-0.0679251 0.2684 1.30569)
(-0.110327 0.254641 1.30074)
(-0.148604 0.234589 1.29302)
(-0.180333 0.210441 1.28193)
(0.178748 0.207433 1.31251)
(0.146007 0.227531 1.32042)
(0.107776 0.243944 1.3257)
(0.0660683 0.255151 1.329)
(0.0222648 0.260859 1.33057)
(-0.0222653 0.260859 1.33057)
(-0.0660687 0.255151 1.329)
(-0.107776 0.243944 1.3257)
(-0.146008 0.22753 1.32042)
(-0.178748 0.207433 1.31251)
(0.170887 0.196964 1.33095)
(0.13842 0.212111 1.3363)
(0.101592 0.224127 1.33967)
(0.0620097 0.232349 1.3417)
(0.0208525 0.236533 1.34264)
(-0.020853 0.236533 1.34264)
(-0.0620102 0.232349 1.3417)
(-0.101593 0.224127 1.33967)
(-0.13842 0.212111 1.3363)
(-0.170887 0.196964 1.33095)
(0.158335 0.181836 1.34142)
(0.127406 0.189504 1.34484)
(0.0927433 0.196817 1.3468)
(0.0563238 0.201858 1.34789)
(0.0188941 0.204421 1.34836)
(-0.0188947 0.204421 1.34836)
(-0.0563244 0.201858 1.34789)
(-0.0927438 0.196817 1.3468)
(-0.127406 0.189504 1.34484)
(-0.158336 0.181836 1.34142)
(0.00111285 0.00124243 0.158111)
(0.00112481 0.00158707 0.166435)
(0.000876816 0.00199301 0.173384)
(0.000586778 0.00229369 0.178303)
(0.000204448 0.00246026 0.180848)
(-0.000204481 0.00246026 0.180848)
(-0.00058681 0.00229368 0.178303)
(-0.000876847 0.001993 0.173384)
(-0.00112484 0.00158705 0.166435)
(-0.00111288 0.00124241 0.158111)
(0.0178847 0.0207537 0.442989)
(0.0160835 0.0253178 0.463253)
(0.0125866 0.029614 0.479891)
(0.00808294 0.0327867 0.491567)
(0.00278506 0.0344908 0.497576)
(-0.00278516 0.0344908 0.497576)
(-0.00808304 0.0327867 0.491567)
(-0.0125867 0.029614 0.479891)
(-0.0160836 0.0253177 0.463253)
(-0.0178847 0.0207536 0.442989)
(0.0407105 0.0473899 0.687259)
(0.0359505 0.0569247 0.714907)
(0.0279248 0.0656225 0.737244)
(0.0177857 0.0719807 0.752788)
(0.00610614 0.0753659 0.760747)
(-0.00610631 0.0753659 0.760747)
(-0.0177859 0.0719806 0.752788)
(-0.027925 0.0656225 0.737244)
(-0.0359506 0.0569247 0.714907)
(-0.0407106 0.0473898 0.687259)
(0.0652689 0.0760407 0.890293)
(0.0568753 0.0900486 0.921513)
(0.0438483 0.10258 0.946312)
(0.0277472 0.111643 0.96342)
(0.00949695 0.116433 0.972135)
(-0.00949718 0.116433 0.972135)
(-0.0277475 0.111643 0.96342)
(-0.0438485 0.10258 0.946312)
(-0.0568755 0.0900485 0.921513)
(-0.065269 0.0760406 0.890293)
(0.0871208 0.101387 1.05545)
(0.0750465 0.118395 1.08741)
(0.0574417 0.133383 1.11236)
(0.0361425 0.144116 1.12942)
(0.0123363 0.149752 1.13806)
(-0.0123366 0.149752 1.13806)
(-0.0361428 0.144116 1.12942)
(-0.057442 0.133383 1.11236)
(-0.0750468 0.118394 1.08741)
(-0.087121 0.101386 1.05545)
(0.10406 0.12079 1.18759)
(0.0886873 0.139055 1.21836)
(0.0674117 0.154928 1.24196)
(0.042192 0.166192 1.25795)
(0.0143641 0.17207 1.26601)
(-0.0143645 0.17207 1.26601)
(-0.0421924 0.166192 1.25795)
(-0.0674121 0.154928 1.24196)
(-0.0886876 0.139055 1.21836)
(-0.10406 0.12079 1.18759)
(0.115272 0.133327 1.29185)
(0.0972349 0.151183 1.32024)
(0.0734067 0.166467 1.34163)
(0.0457126 0.177224 1.35601)
(0.0155242 0.182806 1.36322)
(-0.0155246 0.182806 1.36322)
(-0.045713 0.177224 1.35601)
(-0.0734071 0.166467 1.34163)
(-0.0972353 0.151183 1.32024)
(-0.115272 0.133327 1.29185)
(0.120669 0.138928 1.37302)
(0.100754 0.15493 1.39842)
(0.0755543 0.168383 1.41725)
(0.0468192 0.177779 1.4298)
(0.0158614 0.182631 1.43606)
(-0.0158619 0.182631 1.43606)
(-0.0468197 0.177779 1.4298)
(-0.0755548 0.168383 1.41725)
(-0.100755 0.15493 1.39842)
(-0.12067 0.138928 1.37302)
(0.12068 0.138068 1.43528)
(0.0997643 0.151072 1.45757)
(0.0742908 0.161686 1.47383)
(0.045799 0.169068 1.48455)
(0.0154759 0.172865 1.48985)
(-0.0154765 0.172865 1.48985)
(-0.0457995 0.169068 1.48455)
(-0.0742914 0.161686 1.47383)
(-0.0997648 0.151072 1.45757)
(-0.12068 0.138067 1.43528)
(0.116141 0.132547 1.48208)
(0.0950811 0.140297 1.50176)
(0.0701079 0.14732 1.51558)
(0.0429531 0.152182 1.52454)
(0.0144703 0.154669 1.52894)
(-0.0144709 0.154669 1.52894)
(-0.0429537 0.152182 1.52454)
(-0.0701084 0.14732 1.51558)
(-0.0950816 0.140297 1.50176)
(-0.116142 0.132547 1.48208)
(0.000705062 0.000927121 0.138688)
(0.000550203 0.00116266 0.145535)
(0.000376188 0.00132935 0.151109)
(0.000232907 0.00142774 0.155021)
(7.79235e-05 0.00147688 0.157039)
(-7.79515e-05 0.00147688 0.157039)
(-0.000232934 0.00142774 0.155021)
(-0.000376215 0.00132934 0.151109)
(-0.000550228 0.00116265 0.145535)
(-0.000705084 0.000927102 0.138688)
(0.00691744 0.00827589 0.397619)
(0.00600338 0.0102009 0.415782)
(0.00461432 0.0118657 0.430481)
(0.00294283 0.0130598 0.440766)
(0.00101047 0.0136947 0.446059)
(-0.00101056 0.0136947 0.446059)
(-0.00294292 0.0130597 0.440766)
(-0.00461441 0.0118657 0.430481)
(-0.00600346 0.0102009 0.415782)
(-0.0069175 0.00827585 0.397619)
(0.0169322 0.0200009 0.631834)
(0.0147634 0.0243489 0.658612)
(0.0114209 0.0281629 0.680112)
(0.00727379 0.0309298 0.695092)
(0.00249754 0.0324011 0.702779)
(-0.00249769 0.0324011 0.702779)
(-0.00727394 0.0309298 0.695092)
(-0.0114211 0.0281629 0.680112)
(-0.0147635 0.0243489 0.658612)
(-0.0169323 0.0200009 0.631833)
(0.028998 0.0340583 0.839287)
(0.0252001 0.0409601 0.871933)
(0.0194686 0.0470134 0.897892)
(0.0123595 0.0514001 0.915885)
(0.00423774 0.0537254 0.925087)
(-0.00423795 0.0537254 0.925087)
(-0.0123597 0.0514001 0.915885)
(-0.0194688 0.0470133 0.897892)
(-0.0252002 0.04096 0.871933)
(-0.0289982 0.0340582 0.839287)
(0.0410952 0.0480507 1.01984)
(0.0354893 0.0570503 1.05586)
(0.0273054 0.0648975 1.08419)
(0.017265 0.0705552 1.10371)
(0.00590831 0.0735412 1.11366)
(-0.00590859 0.0735412 1.11366)
(-0.0172653 0.0705552 1.10371)
(-0.0273057 0.0648974 1.08419)
(-0.0354895 0.0570502 1.05586)
(-0.0410954 0.0480506 1.01984)
(0.0517664 0.0602605 1.1746)
(0.0443608 0.0705668 1.2119)
(0.0339482 0.0794679 1.24088)
(0.02137 0.0858422 1.26074)
(0.00729717 0.0891898 1.27083)
(-0.0072975 0.0891898 1.27083)
(-0.0213704 0.0858422 1.26074)
(-0.0339485 0.0794679 1.24088)
(-0.0443611 0.0705667 1.2119)
(-0.0517667 0.0602604 1.1746)
(0.0600604 0.0695878 1.30536)
(0.0510241 0.0802664 1.34228)
(0.0388107 0.0893701 1.37063)
(0.0243164 0.0958401 1.38993)
(0.00828397 0.0992204 1.3997)
(-0.00828437 0.0992204 1.3997)
(-0.0243168 0.09584 1.38993)
(-0.0388111 0.0893701 1.37063)
(-0.0510244 0.0802663 1.34228)
(-0.0600607 0.0695877 1.30536)
(0.0654194 0.0753901 1.41424)
(0.0550621 0.0854958 1.44956)
(0.041611 0.0939681 1.47637)
(0.0259438 0.09994 1.49452)
(0.0088168 0.103044 1.50366)
(-0.00881726 0.103044 1.50366)
(-0.0259442 0.09994 1.49452)
(-0.0416114 0.0939681 1.47637)
(-0.0550624 0.0854958 1.44956)
(-0.0654197 0.07539 1.41424)
(0.0676743 0.0774368 1.5033)
(0.0564154 0.0861242 1.53635)
(0.0423307 0.0932027 1.56112)
(0.0262503 0.0981573 1.57774)
(0.0088967 0.100718 1.58605)
(-0.00889721 0.100718 1.58605)
(-0.0262508 0.0981573 1.57774)
(-0.0423311 0.0932027 1.56112)
(-0.0564158 0.0861241 1.53635)
(-0.0676747 0.0774367 1.5033)
(0.0670249 0.0765056 1.57438)
(0.0552945 0.0822394 1.60544)
(0.0410701 0.0872269 1.62785)
(0.0253004 0.0906863 1.64267)
(0.00854657 0.0924611 1.65003)
(-0.00854711 0.0924611 1.65003)
(-0.0253009 0.0906863 1.64267)
(-0.0410706 0.0872269 1.62785)
(-0.055295 0.0822393 1.60544)
(-0.0670253 0.0765055 1.57438)
(0.000124358 0.000135417 0.128026)
(0.000115545 0.000178005 0.134422)
(8.52399e-05 0.000222006 0.139618)
(5.82659e-05 0.000252828 0.143271)
(2.01061e-05 0.000270278 0.145157)
(-2.01288e-05 0.000270276 0.145157)
(-5.82883e-05 0.000252823 0.143271)
(-8.52617e-05 0.000221997 0.139618)
(-0.000115566 0.000177993 0.134422)
(-0.000124376 0.000135401 0.128026)
(0.00241622 0.00279452 0.37114)
(0.00216127 0.00346516 0.388517)
(0.0016924 0.00408362 0.402588)
(0.00109351 0.00454358 0.412458)
(0.000377515 0.00479317 0.417544)
(-0.000377586 0.00479316 0.417544)
(-0.00109358 0.00454357 0.412458)
(-0.00169247 0.00408359 0.402588)
(-0.00216133 0.00346513 0.388517)
(-0.00241628 0.00279448 0.37114)
(0.0065794 0.00763365 0.596217)
(0.00584414 0.00935756 0.622539)
(0.00457933 0.0109238 0.643736)
(0.00294201 0.0120886 0.658561)
(0.00101417 0.0127161 0.666185)
(-0.00101429 0.0127161 0.666185)
(-0.00294213 0.0120885 0.658561)
(-0.00457945 0.0109238 0.643736)
(-0.00584425 0.00935751 0.622539)
(-0.0065795 0.00763359 0.596217)
(0.012062 0.0139984 0.801589)
(0.010642 0.0169691 0.834712)
(0.00831384 0.019642 0.861192)
(0.00531827 0.0216193 0.879644)
(0.00183009 0.0226792 0.889112)
(-0.00183027 0.0226792 0.889112)
(-0.00531844 0.0216193 0.879644)
(-0.00831401 0.019642 0.861192)
(-0.0106422 0.016969 0.834711)
(-0.0120621 0.0139984 0.801589)
(0.0180129 0.0208723 0.9864)
(0.0157751 0.0249994 1.02421)
(0.0122676 0.0286775 1.05419)
(0.00781384 0.0313798 1.07498)
(0.00268353 0.0328211 1.08563)
(-0.00268376 0.0328211 1.08563)
(-0.00781405 0.0313797 1.07498)
(-0.0122678 0.0286774 1.05419)
(-0.0157753 0.0249993 1.02421)
(-0.018013 0.0208722 0.9864)
(0.0236891 0.0273732 1.15046)
(0.0205787 0.0323548 1.19101)
(0.0159149 0.0367458 1.22285)
(0.0100915 0.0399473 1.24483)
(0.00345825 0.041646 1.25605)
(-0.00345852 0.0416459 1.25605)
(-0.0100917 0.0399473 1.24483)
(-0.0159151 0.0367457 1.22284)
(-0.0205789 0.0323547 1.19101)
(-0.0236893 0.0273731 1.15046)
(0.0285027 0.0328123 1.29409)
(0.0245427 0.0382126 1.33563)
(0.0188632 0.0429098 1.36793)
(0.0119042 0.0463064 1.39013)
(0.00406988 0.0480987 1.40142)
(-0.00407021 0.0480987 1.40142)
(-0.0119045 0.0463064 1.39013)
(-0.0188635 0.0429098 1.36793)
(-0.024543 0.0382126 1.33563)
(-0.0285029 0.0328123 1.29409)
(0.0320269 0.03669 1.41791)
(0.0273181 0.0420116 1.45901)
(0.0208554 0.046565 1.49066)
(0.0130947 0.0498273 1.51229)
(0.00446554 0.0515387 1.52325)
(-0.00446591 0.0515387 1.52325)
(-0.0130951 0.0498273 1.51229)
(-0.0208558 0.046565 1.49066)
(-0.0273184 0.0420116 1.45901)
(-0.0320272 0.0366899 1.41791)
(0.0340387 0.0387266 1.52263)
(0.0287436 0.043485 1.56235)
(0.0217755 0.0474413 1.59258)
(0.0135928 0.0502482 1.61306)
(0.00462168 0.0517105 1.62338)
(-0.00462209 0.0517105 1.62338)
(-0.0135932 0.0502482 1.61306)
(-0.0217758 0.0474413 1.59258)
(-0.028744 0.043485 1.56235)
(-0.034039 0.0387265 1.52263)
(0.0345247 0.039221 1.60885)
(0.028802 0.0425635 1.64734)
(0.0215784 0.0454578 1.67554)
(0.0133711 0.0474828 1.69438)
(0.00452966 0.0485274 1.70379)
(-0.00453009 0.0485274 1.70379)
(-0.0133715 0.0474828 1.69437)
(-0.0215787 0.0454578 1.67554)
(-0.0288023 0.0425635 1.64734)
(-0.034525 0.0392209 1.60885)
(7.57776e-05 0.000102752 0.125248)
(5.25552e-05 0.000130447 0.131454)
(3.17807e-05 0.000146311 0.136466)
(1.92273e-05 0.000153966 0.139983)
(6.20782e-06 0.000157567 0.141796)
(-6.22544e-06 0.000157566 0.141796)
(-1.92448e-05 0.000153962 0.139983)
(-3.17979e-05 0.000146304 0.136466)
(-5.25712e-05 0.000130438 0.131454)
(-7.57921e-05 0.00010274 0.125248)
(0.000976084 0.00116752 0.363165)
(0.000836613 0.00144849 0.380119)
(0.000638565 0.00168433 0.393789)
(0.000407266 0.00185314 0.403368)
(0.000139708 0.00194324 0.408301)
(-0.000139763 0.00194324 0.408301)
(-0.000407321 0.00185313 0.403368)
(-0.000638619 0.00168431 0.393789)
(-0.000836663 0.00144847 0.380119)
(-0.000976127 0.00116749 0.363164)
(0.00268804 0.0031673 0.584573)
(0.00234443 0.00389591 0.61049)
(0.00181824 0.00453074 0.631306)
(0.00116245 0.00499598 0.645862)
(0.000399819 0.00524525 0.653348)
(-0.000399914 0.00524525 0.653348)
(-0.00116254 0.00499596 0.645862)
(-0.00181833 0.00453071 0.631306)
(-0.00234451 0.00389587 0.61049)
(-0.00268811 0.00316725 0.584573)
(0.00503348 0.00589312 0.788557)
(0.0044034 0.00718298 0.821579)
(0.00342637 0.00831853 0.847957)
(0.00218886 0.00915429 0.866352)
(0.000752842 0.00960172 0.875796)
(-0.000752976 0.00960171 0.875796)
(-0.00218899 0.00915427 0.866352)
(-0.00342649 0.0083185 0.847957)
(-0.00440352 0.00718293 0.821579)
(-0.00503358 0.00589306 0.788556)
(0.00770346 0.00897676 0.974478)
(0.00672424 0.0108267 1.01274)
(0.00522589 0.0124558 1.0431)
(0.00333065 0.0136524 1.0642)
(0.00114437 0.0142912 1.07501)
(-0.00114454 0.0142912 1.07501)
(-0.00333082 0.0136524 1.0642)
(-0.00522606 0.0124558 1.0431)
(-0.00672439 0.0108267 1.01274)
(-0.00770359 0.00897669 0.974478)
(0.0103849 0.0120476 1.142)
(0.0090197 0.0143538 1.18369)
(0.00698517 0.0163734 1.21651)
(0.00443707 0.0178494 1.23924)
(0.00152207 0.0186343 1.25086)
(-0.00152228 0.0186343 1.25086)
(-0.00443728 0.0178494 1.23924)
(-0.00698536 0.0163734 1.21651)
(-0.00901989 0.0143537 1.18369)
(-0.0103851 0.0120475 1.14199)
(0.0127914 0.0147695 1.29102)
(0.0110338 0.0173486 1.33446)
(0.00850252 0.019585 1.36837)
(0.00537902 0.0212083 1.39176)
(0.00184147 0.0220674 1.40369)
(-0.00184172 0.0220674 1.40368)
(-0.00537926 0.0212083 1.39176)
(-0.00850275 0.019585 1.36837)
(-0.0110341 0.0173485 1.33446)
(-0.0127915 0.0147695 1.29102)
(0.0146836 0.0168608 1.42162)
(0.012563 0.0194798 1.46533)
(0.00962281 0.0217195 1.49918)
(0.00605925 0.0233309 1.5224)
(0.00206941 0.024179 1.5342)
(-0.0020697 0.024179 1.5342)
(-0.00605953 0.0233309 1.5224)
(-0.00962307 0.0217194 1.49918)
(-0.0125633 0.0194798 1.46533)
(-0.0146838 0.0168608 1.42162)
(0.0159068 0.0181278 1.53388)
(0.0134838 0.0205418 1.57684)
(0.0102525 0.022552 1.60974)
(0.00641899 0.0239837 1.63213)
(0.00218587 0.0247315 1.64344)
(-0.00218618 0.0247315 1.64344)
(-0.00641929 0.0239837 1.63213)
(-0.0102528 0.022552 1.60974)
(-0.013484 0.0205418 1.57683)
(-0.015907 0.0181277 1.53388)
(0.0164076 0.0186645 1.62775)
(0.0137406 0.0204376 1.67005)
(0.0103338 0.0219589 1.70125)
(0.00642224 0.0230263 1.72219)
(0.00217884 0.0235782 1.73268)
(-0.00217916 0.0235782 1.73268)
(-0.00642256 0.0230263 1.72219)
(-0.0103341 0.0219589 1.70125)
(-0.0137409 0.0204376 1.67005)
(-0.0164078 0.0186645 1.62775)
(1.01884e-05 1.24824e-05 0.123864)
(6.71483e-06 1.73459e-05 0.130008)
(3.50051e-06 2.05343e-05 0.134967)
(2.61718e-06 2.2322e-05 0.138448)
(8.64651e-07 2.33551e-05 0.140242)
(-8.77933e-07 2.33541e-05 0.140242)
(-2.63025e-06 2.2319e-05 0.138448)
(-3.5133e-06 2.05292e-05 0.134967)
(-6.72707e-06 1.73387e-05 0.130008)
(-1.0199e-05 1.24735e-05 0.123864)
(0.00032468 0.000379403 0.359252)
(0.000283127 0.00047407 0.376051)
(0.000218999 0.000556694 0.389588)
(0.00014126 0.00061766 0.399077)
(4.86871e-05 0.000650758 0.403964)
(-4.87286e-05 0.000650756 0.403964)
(-0.0001413 0.000617651 0.399077)
(-0.000219039 0.00055668 0.389588)
(-0.000283164 0.000474051 0.376051)
(-0.000324712 0.000379379 0.359252)
(0.000974982 0.00113479 0.578728)
(0.000859303 0.0014042 0.604475)
(0.000672159 0.0016439 0.625152)
(0.000432498 0.00182278 0.639618)
(0.00014919 0.00191955 0.647059)
(-0.000149261 0.00191955 0.647059)
(-0.000432568 0.00182276 0.639617)
(-0.000672226 0.00164387 0.625152)
(-0.000859366 0.00140417 0.604475)
(-0.000975036 0.00113475 0.578728)
(0.0019153 0.0022236 0.78168)
(0.00168998 0.00272646 0.814633)
(0.00132446 0.00317584 0.840966)
(0.000850517 0.00351133 0.859344)
(0.000293251 0.00369233 0.868784)
(-0.000293351 0.00369233 0.868783)
(-0.000850615 0.00351131 0.859343)
(-0.00132456 0.00317582 0.840965)
(-0.00169006 0.00272642 0.814633)
(-0.00191538 0.00222356 0.78168)
(0.00303409 0.00351208 0.967629)
(0.00267001 0.00426217 1.00604)
(0.0020893 0.00493131 1.03654)
(0.00133813 0.00542911 1.05777)
(0.000460861 0.00569679 1.06865)
(-0.00046099 0.00569678 1.06865)
(-0.00133826 0.00542909 1.05777)
(-0.00208942 0.00493128 1.03654)
(-0.00267012 0.00426213 1.00604)
(-0.00303419 0.00351203 0.967629)
(0.00420516 0.00485035 1.13624)
(0.00368231 0.00581618 1.17839)
(0.0028713 0.00667258 1.21162)
(0.00183282 0.00730615 1.23467)
(0.00063023 0.00764542 1.24647)
(-0.000630388 0.00764541 1.24647)
(-0.00183298 0.00730613 1.23467)
(-0.00287145 0.00667255 1.21162)
(-0.00368245 0.00581614 1.17839)
(-0.00420528 0.0048503 1.13624)
(0.00530217 0.00608978 1.28733)
(0.00461216 0.00720063 1.33157)
(0.00357875 0.00817609 1.3662)
(0.00227519 0.00889254 1.39013)
(0.000780778 0.00927428 1.40234)
(-0.000780963 0.00927427 1.40234)
(-0.00227538 0.00889252 1.39012)
(-0.00357892 0.00817607 1.3662)
(-0.00461232 0.00720059 1.33157)
(-0.00530231 0.00608973 1.28733)
(0.00621094 0.00709558 1.42077)
(0.00535973 0.00825261 1.46564)
(0.00413381 0.00925483 1.50049)
(0.0026156 0.00998407 1.52447)
(0.000895423 0.0103703 1.53667)
(-0.000895632 0.0103703 1.53667)
(-0.0026158 0.00998406 1.52447)
(-0.004134 0.00925481 1.50049)
(-0.00535991 0.00825258 1.46564)
(-0.00621109 0.00709554 1.42077)
(0.00684995 0.00776725 1.53637)
(0.00585597 0.00886032 1.58082)
(0.00448223 0.00978173 1.61499)
(0.00281918 0.0104441 1.63831)
(0.000962159 0.010792 1.65011)
(-0.000962388 0.010792 1.65011)
(-0.00281941 0.0104441 1.63831)
(-0.00448243 0.00978171 1.61499)
(-0.00585616 0.0088603 1.58082)
(-0.00685012 0.00776722 1.53637)
(0.00717987 0.00813462 1.63378)
(0.00605758 0.00896629 1.67791)
(0.00458327 0.00967866 1.71058)
(0.00286012 0.0101816 1.73256)
(0.000972253 0.0104427 1.74359)
(-0.000972492 0.0104427 1.74359)
(-0.00286036 0.0101816 1.73256)
(-0.00458349 0.00967865 1.71058)
(-0.00605778 0.00896628 1.67791)
(-0.00718005 0.00813461 1.63378)
(6.83715e-06 1.11242e-05 0.123527)
(2.57235e-06 1.45464e-05 0.129648)
(2.04458e-07 1.54817e-05 0.134582)
(-1.56049e-07 1.54027e-05 0.138045)
(-1.39349e-07 1.52496e-05 0.13983)
(1.29588e-07 1.52488e-05 0.13983)
(1.46537e-07 1.54005e-05 0.138045)
(-2.13814e-07 1.5478e-05 0.134582)
(-2.58112e-06 1.45411e-05 0.129648)
(-6.84464e-06 1.1118e-05 0.123527)
(0.00012058 0.00014728 0.35813)
(9.91434e-05 0.000184342 0.374859)
(7.38268e-05 0.000213191 0.388329)
(4.66561e-05 0.000233325 0.397769)
(1.5914e-05 0.00024398 0.40263)
(-1.59444e-05 0.000243977 0.40263)
(-4.66856e-05 0.000233319 0.397769)
(-7.38557e-05 0.000213181 0.388329)
(-9.91702e-05 0.000184328 0.374859)
(-0.000120603 0.000147263 0.35813)
(0.000364227 0.000432126 0.576914)
(0.000313401 0.000536475 0.602572)
(0.000241583 0.000624937 0.623166)
(0.000154245 0.000689669 0.637571)
(5.30054e-05 0.000724386 0.644981)
(-5.30567e-05 0.000724383 0.644981)
(-0.000154295 0.00068966 0.637571)
(-0.000241631 0.000624921 0.623166)
(-0.000313447 0.000536453 0.602572)
(-0.000364266 0.000432101 0.576913)
(0.000726477 0.000852271 0.779439)
(0.000633516 0.00104977 0.812331)
(0.000493169 0.00122188 0.838606)
(0.000315665 0.0013493 0.856945)
(0.000108673 0.00141783 0.866366)
(-0.000108745 0.00141783 0.866366)
(-0.000315735 0.00134929 0.856945)
(-0.000493237 0.00122186 0.838606)
(-0.00063358 0.00104974 0.812331)
(-0.000726532 0.000852239 0.779439)
(0.00117173 0.0013652 0.96534)
(0.00102513 0.00166576 1.00376)
(0.000799892 0.0019301 1.03428)
(0.000511792 0.00212616 1.05552)
(0.000176191 0.0022315 1.06642)
(-0.000176284 0.0022315 1.06642)
(-0.000511883 0.00212615 1.05552)
(-0.000799979 0.00193008 1.03428)
(-0.00102521 0.00166573 1.00376)
(-0.0011718 0.00136516 0.965339)
(0.0016537 0.00191605 1.13433)
(0.00144452 0.00231146 1.17662)
(0.00112566 0.00265917 1.20998)
(0.000718742 0.00291633 1.23313)
(0.000247196 0.00305412 1.24498)
(-0.00024731 0.00305412 1.24497)
(-0.000718853 0.00291632 1.23312)
(-0.00112576 0.00265915 1.20998)
(-0.00144462 0.00231143 1.17662)
(-0.00165378 0.00191601 1.13433)
(0.00212109 0.00244448 1.28622)
(0.00184435 0.00290902 1.33076)
(0.00143211 0.00331503 1.36564)
(0.000911441 0.00361357 1.38977)
(0.00031296 0.00377285 1.40209)
(-0.000313093 0.00377285 1.40209)
(-0.000911571 0.00361356 1.38977)
(-0.00143223 0.00331501 1.36564)
(-0.00184447 0.00290899 1.33076)
(-0.00212119 0.00244445 1.28622)
(0.00252372 0.00289105 1.42082)
(0.00217995 0.00338502 1.46615)
(0.00168391 0.00381193 1.50141)
(0.0010671 0.00412314 1.52569)
(0.000365598 0.00428821 1.53804)
(-0.000365748 0.0042882 1.53804)
(-0.00106725 0.00412313 1.52568)
(-0.00168405 0.00381191 1.50141)
(-0.00218008 0.00338499 1.46615)
(-0.00252384 0.00289101 1.42081)
(0.00282245 0.00320716 1.53784)
(0.00241727 0.0036836 1.58292)
(0.00185393 0.00408512 1.61764)
(0.00116812 0.00437431 1.64135)
(0.000399018 0.00452641 1.65335)
(-0.000399182 0.00452641 1.65335)
(-0.00116828 0.0043743 1.64134)
(-0.00185408 0.00408511 1.61763)
(-0.00241741 0.00368358 1.58292)
(-0.00282257 0.00320714 1.53784)
(0.00299481 0.00339899 1.6368)
(0.00253196 0.00377163 1.68174)
(0.00192015 0.00408936 1.71506)
(0.00120045 0.00431407 1.7375)
(0.000408437 0.00443086 1.74878)
(-0.000408609 0.00443085 1.74878)
(-0.00120062 0.00431406 1.7375)
(-0.00192031 0.00408935 1.71506)
(-0.00253211 0.00377162 1.68174)
(-0.00299494 0.00339898 1.6368)
(-7.22513e-07 -2.42547e-07 0.123376)
(-1.59973e-06 1.1245e-07 0.12949)
(-1.71412e-06 -1.01762e-07 0.134417)
(-1.12492e-06 -4.26116e-07 0.137876)
(-4.07462e-07 -6.12249e-07 0.139658)
(4.00501e-07 -6.12776e-07 0.139658)
(1.11821e-06 -4.277e-07 0.137876)
(1.70759e-06 -1.04284e-07 0.134417)
(1.59352e-06 1.08794e-07 0.12949)
(7.17491e-07 -2.46842e-07 0.123376)
(3.16863e-05 3.82524e-05 0.357643)
(2.57954e-05 4.88074e-05 0.374348)
(1.91678e-05 5.70761e-05 0.387795)
(1.21985e-05 6.29827e-05 0.39722)
(4.16481e-06 6.61555e-05 0.402073)
(-4.18634e-06 6.6154e-05 0.402073)
(-1.22193e-05 6.29783e-05 0.39722)
(-1.91879e-05 5.70692e-05 0.387795)
(-2.58144e-05 4.87974e-05 0.374348)
(-3.17018e-05 3.82406e-05 0.357643)
(0.000111412 0.000130958 0.576116)
(9.62036e-05 0.000164574 0.60174)
(7.45558e-05 0.000193411 0.622303)
(4.78605e-05 0.000214876 0.636688)
(1.64809e-05 0.000226495 0.644087)
(-1.65172e-05 0.000226492 0.644087)
(-4.78956e-05 0.00021487 0.636688)
(-7.45896e-05 0.0001934 0.622303)
(-9.62357e-05 0.000164559 0.60174)
(-0.000111439 0.00013094 0.576116)
(0.000238237 0.000277387 0.778421)
(0.000208956 0.000345078 0.811283)
(0.000163664 0.000404711 0.837534)
(0.00010527 0.000449482 0.855858)
(3.63189e-05 0.000473742 0.865271)
(-3.637e-05 0.000473739 0.865271)
(-0.00010532 0.000449474 0.855858)
(-0.000163711 0.000404696 0.837534)
(-0.000209 0.000345059 0.811283)
(-0.000238275 0.000277366 0.77842)
(0.000401572 0.00046479 0.964237)
(0.000353675 0.000572173 1.00266)
(0.000277732 0.00066759 1.03318)
(0.00017855 0.000739252 1.05442)
(6.16029e-05 0.000778021 1.06532)
(-6.16685e-05 0.000778017 1.06532)
(-0.000178614 0.000739242 1.05442)
(-0.000277793 0.000667574 1.03318)
(-0.000353731 0.000572152 1.00266)
(-0.000401622 0.000464766 0.964237)
(0.000585244 0.000673962 1.13331)
(0.0005149 0.00081977 1.17564)
(0.000403871 0.000949298 1.20904)
(0.000259104 0.00104622 1.23222)
(8.93118e-05 0.00109849 1.24409)
(-8.93915e-05 0.00109849 1.24409)
(-0.000259182 0.00104621 1.23222)
(-0.000403945 0.000949282 1.20904)
(-0.000514969 0.000819749 1.17564)
(-0.000585305 0.000673937 1.13331)
(0.000769764 0.000881952 1.28545)
(0.000674407 0.00105774 1.3301)
(0.000527136 0.00121295 1.36508)
(0.000337075 0.00132835 1.38928)
(0.000115998 0.0013903 1.40164)
(-0.000116091 0.00139029 1.40164)
(-0.000337166 0.00132834 1.38928)
(-0.000527222 0.00121294 1.36508)
(-0.000674487 0.00105772 1.33009)
(-0.000769835 0.000881927 1.28545)
(0.000934915 0.00106483 1.42046)
(0.000813872 0.00125598 1.46598)
(0.000632797 0.00142288 1.50139)
(0.000402853 0.00154577 1.52578)
(0.000138319 0.00161131 1.53821)
(-0.000138424 0.00161131 1.53821)
(-0.000402956 0.00154576 1.52578)
(-0.000632895 0.00142286 1.50139)
(-0.000813962 0.00125596 1.46598)
(-0.000934996 0.00106481 1.42046)
(0.00106404 0.00120221 1.53803)
(0.000918292 0.00139049 1.58336)
(0.000708655 0.0015506 1.61828)
(0.000448423 0.00166684 1.64215)
(0.000153482 0.00172826 1.65425)
(-0.000153596 0.00172826 1.65425)
(-0.000448535 0.00166684 1.64215)
(-0.000708762 0.00155058 1.61828)
(-0.000918392 0.00139047 1.58335)
(-0.00106413 0.00120219 1.53802)
(0.00114628 0.00129533 1.63759)
(0.000975519 0.00144678 1.68286)
(0.000743926 0.00157552 1.71645)
(0.000466845 0.00166703 1.73908)
(0.000159112 0.00171475 1.75046)
(-0.000159234 0.00171475 1.75046)
(-0.000466964 0.00166703 1.73908)
(-0.00074404 0.00157551 1.71644)
(-0.000975626 0.00144677 1.68285)
(-0.00114638 0.00129532 1.63759)
(-2.36994e-09 6.92498e-07 0.123357)
(-7.75934e-07 1.03602e-06 0.129468)
(-9.66511e-07 8.80559e-07 0.134393)
(-7.09506e-07 6.11916e-07 0.137849)
(-2.65216e-07 4.38358e-07 0.139631)
(2.604e-07 4.37987e-07 0.139631)
(7.04845e-07 6.10821e-07 0.137849)
(9.62116e-07 8.78781e-07 0.134393)
(7.7189e-07 1.03362e-06 0.129468)
(-9.71417e-10 6.89737e-07 0.123357)
(8.84243e-06 1.18487e-05 0.357541)
(6.00426e-06 1.53285e-05 0.374236)
(3.84088e-06 1.74504e-05 0.387673)
(2.23575e-06 1.8738e-05 0.39709)
(7.23036e-07 1.93746e-05 0.40194)
(-7.37888e-07 1.93735e-05 0.40194)
(-2.25014e-06 1.87349e-05 0.39709)
(-3.85446e-06 1.74454e-05 0.387673)