/*--------------------------------*- C++ -*----------------------------------*\
| =========                 |                                                 |
| \\      /  F ield         | OpenFOAM: The Open Source CFD Toolbox           |
|  \\    /   O peration     | Version:  2106                                  |
|   \\  /    A nd           | Website:  www.openfoam.com                      |
|    \\/     M anipulation  |                                                 |
\*---------------------------------------------------------------------------*/
FoamFile
{
    version     2.0;
    format      ascii;
    arch        "LSB;label=32;scalar=64";
    class       surfaceScalarField;
    location    "0.36";
    object      phi;
}
// * * * * * * * * * * * * * * * * * * * * * * * * * * * * * * * * * * * * * //

dimensions      [0 3 -1 0 0 0 0];

oriented        oriented;

internalField   nonuniform List<scalar> 
29100
(
0.00117611
0.14954
0.0807409
-5.13294e-10
0.00144772
0.154375
0.0887311
0.00124231
0.157762
0.0954061
0.000707501
0.160017
0.100184
-2.42561e-09
0.161149
0.102672
-0.000707505
0.161149
0.102672
-0.00124232
0.160017
0.100184
-0.00144772
0.157762
0.0954061
-0.00117612
0.154375
0.0887311
0.14954
0.0807409
-6.73389e-09
0.00235097
0.206696
0.155192
-1.07685e-09
0.00326579
0.211197
0.168697
0.00291261
0.214202
0.17974
0.00168481
0.216072
0.18755
-6.77967e-09
0.216987
0.191585
-0.00168483
0.216987
0.191585
-0.00291262
0.216072
0.18755
-0.0032658
0.214202
0.17974
-0.00235099
0.211197
0.168697
0.206696
0.155192
-1.66836e-08
0.00299304
0.217253
0.184394
-1.44397e-09
0.00423313
0.220053
0.199393
0.00379929
0.221858
0.211467
0.00220024
0.222827
0.219929
-1.06389e-08
0.223273
0.224278
-0.00220026
0.223273
0.224278
-0.00379931
0.222827
0.219929
-0.00423315
0.221858
0.211467
-0.00299307
0.220053
0.199393
0.217253
0.184394
-2.51326e-08
0.00340961
0.203578
0.191452
-1.711e-09
0.00475561
0.204678
0.206575
0.00425865
0.205314
0.218594
0.00246162
0.205463
0.226956
-1.47014e-08
0.205487
0.231236
-0.00246165
0.205487
0.231236
-0.00425868
0.205463
0.226956
-0.00475564
0.205314
0.218594
-0.00340964
0.204678
0.206575
0.203578
0.191452
-3.24105e-08
0.00362489
0.178371
0.186012
-2.00206e-09
0.004986
0.178168
0.20075
0.004452
0.177923
0.212341
0.0025697
0.177492
0.220357
-1.92273e-08
0.177224
0.224445
-0.00256974
0.177224
0.224445
-0.00445204
0.177492
0.220357
-0.00498604
0.177923
0.212341
-0.00362493
0.178168
0.20075
0.178371
0.186012
-3.90741e-08
0.00369434
0.148933
0.173418
-2.427e-09
0.00502963
0.147878
0.187613
0.00448063
0.147067
0.198685
0.00258442
0.146303
0.2063
-2.456e-08
0.145873
0.210173
-0.00258446
0.145873
0.210173
-0.00448068
0.146303
0.2063
-0.00502968
0.147067
0.198685
-0.00369439
0.147878
0.187613
0.148933
0.173418
-4.53479e-08
0.00368593
0.119348
0.156816
-3.01359e-09
0.00498103
0.117827
0.170469
0.00442957
0.116716
0.181045
0.00255446
0.115818
0.188283
-3.10162e-08
0.115336
0.191955
-0.00255452
0.115336
0.191955
-0.00442963
0.115818
0.188283
-0.00498109
0.116716
0.181045
-0.00368598
0.117827
0.170469
0.119348
0.156816
-5.14802e-08
0.00363457
0.0918169
0.138058
-3.72724e-09
0.00490294
0.090102
0.151226
0.00435926
0.0888981
0.161368
0.00251485
0.0880187
0.168277
-3.87811e-08
0.0875645
0.171774
-0.00251492
0.0875645
0.171774
-0.00435933
0.0880187
0.168277
-0.00490301
0.0888981
0.161368
-0.00363463
0.090102
0.151226
0.0918169
0.138058
-5.75929e-08
0.00358487
0.0674214
0.118215
-4.70753e-09
0.00486015
0.0656844
0.130968
0.00432261
0.0645644
0.140741
0.0024929
0.0638223
0.147368
-4.77948e-08
0.0634545
0.150715
-0.00249299
0.0634545
0.150715
-0.00432269
0.0638223
0.147368
-0.00486023
0.0645644
0.140741
-0.00358494
0.0656844
0.130968
0.0674213
0.118215
-6.33573e-08
0.00378639
0.0979038
-5.60953e-09
0.0463795
0.00502626
0.110305
0.0450208
0.0044145
0.11976
0.0441483
0.00252612
0.126146
0.0436164
-5.74624e-08
0.129363
0.0433551
-0.00252624
0.129363
0.0433551
-0.0044146
0.126146
0.0436164
-0.00502635
0.11976
0.0441483
-0.00378647
0.110305
0.0450208
0.0979037
-6.77818e-08
0.0463795
-0.000239702
0.0360597
0.0449209
-6.00521e-10
-0.000241665
0.0391871
0.0495459
-0.000170135
0.0418309
0.0535037
-8.48053e-05
0.0437205
0.0563782
-3.61898e-09
0.0446979
0.0578896
8.47983e-05
0.0446979
0.0578896
0.000170127
0.0437205
0.0563782
0.000241656
0.0418309
0.0535038
0.000239693
0.0391871
0.0495459
0.0360597
0.0449209
-9.89147e-09
5.65518e-05
0.0792796
0.111916
-1.39356e-09
0.000240317
0.0849345
0.122766
0.000290093
0.0896376
0.131883
0.000195088
0.0929301
0.138435
-1.10636e-08
0.0946206
0.141857
-0.00019511
0.0946206
0.141857
-0.000290117
0.0929301
0.138435
-0.000240342
0.0896376
0.131883
-5.65767e-05
0.0849345
0.122766
0.0792796
0.111916
-2.61405e-08
0.000590155
0.109692
0.153392
-2.05207e-09
0.00099603
0.116171
0.167751
0.000975961
0.121488
0.179637
0.000596898
0.125135
0.188103
-1.85163e-08
0.126993
0.192503
-0.000596934
0.126993
0.192503
-0.000975999
0.125135
0.188103
-0.000996069
0.121488
0.179637
-0.000590194
0.116171
0.167751
0.109692
0.153392
-4.07903e-08
0.00118709
0.125183
0.174774
-2.71909e-09
0.00180732
0.131268
0.190858
0.00170091
0.136194
0.203994
0.00101592
0.139499
0.213277
-2.63013e-08
0.141165
0.218079
-0.00101597
0.141165
0.218079
-0.00170096
0.139499
0.213277
-0.00180737
0.136194
0.203994
-0.00118715
0.131268
0.190858
0.125183
0.174774
-5.33347e-08
0.0017653
0.127646
0.181784
-3.41383e-09
0.00256969
0.132679
0.198534
0.0023737
0.136685
0.212046
0.00140175
0.139303
0.221525
-3.46896e-08
0.140605
0.226407
-0.00140182
0.140605
0.226407
-0.00237377
0.139303
0.221525
-0.00256976
0.136685
0.212046
-0.00176536
0.132679
0.198534
0.127646
0.181784
-6.42318e-08
0.00228196
0.120207
0.178575
-4.19869e-09
0.00323847
0.123953
0.195383
0.00295912
0.126859
0.20879
0.00173614
0.128696
0.21813
-4.39338e-08
0.129593
0.222921
-0.00173623
0.129593
0.222921
-0.00295921
0.128696
0.21813
-0.00323855
0.126859
0.20879
-0.00228204
0.123953
0.195383
0.120207
0.178575
-7.36466e-08
0.00271555
0.106125
0.168183
-5.3044e-09
0.0037995
0.108614
0.184724
0.00345081
0.110465
0.197787
0.00201743
0.111584
0.206828
-5.42166e-08
0.112118
0.211448
-0.00201754
0.112118
0.211448
-0.00345091
0.111584
0.206828
-0.00379959
0.110465
0.197787
-0.00271564
0.108614
0.184724
0.106125
0.168183
-8.17539e-08
0.00306168
0.0882984
0.152823
-6.90971e-09
0.00426441
0.0896875
0.16895
0.00386453
0.0906582
0.181575
0.00225571
0.0912125
0.190257
-6.5377e-08
0.0914696
0.194678
-0.00225584
0.0914696
0.194678
-0.00386465
0.0912125
0.190257
-0.00426452
0.0906582
0.181575
-0.00306178
0.0896875
0.16895
0.0882984
0.152823
-8.83501e-08
0.00335652
0.0690649
0.134092
-8.93182e-09
0.00468414
0.0695632
0.149764
0.00424019
0.069908
0.161935
0.00247119
0.0700952
0.170255
-7.67924e-08
0.0701804
0.174476
-0.00247134
0.0701804
0.174475
-0.00424033
0.0700952
0.170255
-0.00468426
0.069908
0.161935
-0.00335663
0.0695632
0.149764
0.0690649
0.134092
-9.28141e-08
0.00375249
0.113126
-1.10401e-08
0.0500904
0.00518825
0.128369
0.0500635
0.00465795
0.140106
0.0500933
0.00269884
0.148082
0.0501187
-8.59689e-08
0.152114
0.0501279
-0.00269901
0.152114
0.0501279
-0.00465811
0.148082
0.0501187
-0.00518839
0.140106
0.0500933
-0.0037526
0.128369
0.0500635
0.113126
-9.41222e-08
0.0500904
3.98931e-05
0.00963749
0.0352435
-5.24343e-10
3.6019e-05
0.0106344
0.0389153
3.00373e-05
0.0114812
0.0420285
1.65631e-05
0.0121099
0.0442817
-3.25404e-09
0.0124412
0.045465
-1.65706e-05
0.0124412
0.045465
-3.00447e-05
0.0121099
0.0442817
-3.60276e-05
0.0114812
0.0420285
-3.99022e-05
0.0106344
0.0389153
0.00963749
0.0352435
-9.72542e-09
0.000274867
0.0291214
0.0921573
-1.2078e-09
0.000372144
0.0317119
0.101591
0.000331738
0.0338803
0.109525
0.000193231
0.0354432
0.11524
-1.08391e-08
0.0362595
0.118232
-0.000193254
0.0362595
0.118232
-0.000331761
0.0354432
0.11524
-0.000372169
0.0338803
0.109525
-0.000274892
0.0317119
0.101591
0.0291214
0.0921573
-2.61522e-08
0.000580386
0.0489964
0.132936
-1.86974e-09
0.000821565
0.0527822
0.146439
0.000743003
0.0559073
0.157688
0.000435046
0.058108
0.165746
-1.88661e-08
0.0592472
0.16995
-0.000435085
0.0592472
0.16995
-0.000743042
0.058108
0.165746
-0.000821606
0.0559073
0.157688
-0.000580426
0.0527822
0.146439
0.0489964
0.132936
-4.11837e-08
0.00092719
0.0637917
0.159052
-2.63945e-09
0.00132786
0.0680675
0.175172
0.00121099
0.0715518
0.188466
0.000710534
0.0739552
0.197931
-2.72169e-08
0.0751873
0.20285
-0.000710588
0.0751873
0.20285
-0.00121104
0.0739552
0.197931
-0.00132791
0.0715518
0.188466
-0.000927243
0.0680675
0.175172
0.0637917
0.159052
-5.42001e-08
0.00129087
0.0716871
0.172597
-3.61698e-09
0.0018452
0.0758226
0.190224
0.00168707
0.0791451
0.204611
0.000990131
0.0813898
0.214787
-3.6067e-08
0.0825282
0.220056
-0.000990203
0.0825282
0.220056
-0.00168714
0.0813898
0.214787
-0.00184527
0.0791451
0.204611
-0.00129094
0.0758227
0.190224
0.0716871
0.172597
-6.53068e-08
0.00165214
0.0728162
0.175794
-4.80115e-09
0.00234536
0.0763822
0.19413
0.00214331
0.0791945
0.208943
0.00125716
0.0810528
0.219353
-4.55103e-08
0.0819838
0.224723
-0.00125725
0.0819838
0.224723
-0.0021434
0.0810528
0.219353
-0.00234544
0.0791946
0.208943
-0.00165222
0.0763823
0.19413
0.0728163
0.175794
-7.43488e-08
0.00198935
0.0683083
0.170702
-6.26834e-09
0.00280642
0.0710807
0.189208
0.00256203
0.0732124
0.204014
0.00150189
0.0745879
0.214353
-5.54616e-08
0.0752682
0.219665
-0.001502
0.0752682
0.219665
-0.00256213
0.0745879
0.214353
-0.00280652
0.0732124
0.204014
-0.00198944
0.0710807
0.189208
0.0683083
0.170702
-8.12484e-08
0.00228796
0.0597148
0.159129
-8.11454e-09
0.00322052
0.061629
0.177469
0.00293885
0.0630598
0.192009
0.00172209
0.0639638
0.202098
-6.53876e-08
0.0644062
0.207262
-0.00172222
0.0644062
0.207262
-0.00293897
0.0639638
0.202098
-0.00322062
0.0630598
0.192009
-0.00228805
0.061629
0.177469
0.0597148
0.159129
-8.56542e-08
0.00256087
0.0486486
0.142598
-1.05543e-08
0.00360529
0.0497592
0.16059
0.00328563
0.0505851
0.174729
0.00192283
0.0511046
0.184477
-7.4332e-08
0.0513585
0.189446
-0.00192297
0.0513585
0.189446
-0.00328577
0.0511046
0.184477
-0.00360541
0.0505852
0.174729
-0.00256097
0.0497592
0.16059
0.0486486
0.142598
-8.70821e-08
0.00287236
0.122357
-1.28608e-08
0.036545
0.00400995
0.139946
0.0370446
0.00363222
0.153622
0.0374467
0.00211652
0.162986
0.0377161
-8.03053e-08
0.167741
0.0378484
-0.00211668
0.167741
0.0378484
-0.00363236
0.162986
0.0377161
-0.00401007
0.153622
0.0374467
-0.00287245
0.139946
0.0370446
0.122357
-8.39553e-08
0.036545
-3.1488e-05
0.00385081
0.0314241
-5.05155e-10
-4.49441e-05
0.00423956
0.0346892
-3.65131e-05
0.00456992
0.0374501
-2.02124e-05
0.00481538
0.03945
-2.89706e-09
0.00494391
0.0405008
2.02065e-05
0.00494391
0.0405008
3.65063e-05
0.00481539
0.03945
4.4937e-05
0.00456992
0.0374501
3.148e-05
0.00423956
0.0346892
0.00385081
0.0314241
-8.31606e-09
5.54669e-06
0.0118655
0.084137
-1.21619e-09
1.03317e-05
0.0129955
0.0928305
1.45427e-05
0.013954
0.100136
1.10778e-05
0.0146516
0.105407
-9.48405e-09
0.0150173
0.10817
-1.10971e-05
0.0150173
0.10817
-1.45635e-05
0.0146516
0.105407
-1.03513e-05
0.013954
0.100136
-5.56613e-06
0.0129955
0.0928305
0.0118655
0.084137
-2.24003e-08
0.000108647
0.0209932
0.1237
-1.98051e-09
0.000164748
0.0228496
0.136529
0.000158372
0.024413
0.147235
9.66001e-05
0.0255336
0.154926
-1.65222e-08
0.0261183
0.158946
-9.66332e-05
0.0261183
0.158946
-0.000158406
0.0255336
0.154926
-0.000164783
0.024413
0.147235
-0.000108683
0.0228497
0.136529
0.0209932
0.1237
-3.58869e-08
0.000264105
0.0289346
0.150846
-2.78697e-09
0.000393306
0.0312716
0.166621
0.000370576
0.0332193
0.179683
0.000222158
0.0345941
0.189019
-2.37984e-08
0.0353066
0.193884
-0.000222206
0.0353066
0.193884
-0.000370624
0.0345941
0.189019
-0.000393354
0.0332193
0.179683
-0.000264152
0.0312716
0.166621
0.0289346
0.150846
-4.71674e-08
0.000456241
0.034305
0.166771
-3.69018e-09
0.0006694
0.0368009
0.184482
0.000625528
0.0388528
0.199021
0.000372426
0.0402779
0.209356
-3.13959e-08
0.0410106
0.214725
-0.000372488
0.0410106
0.214725
-0.000625589
0.0402779
0.209356
-0.00066946
0.0388528
0.199021
-0.000456298
0.0368009
0.184482
0.034305
0.166771
-5.64868e-08
0.000669753
0.0365531
0.172876
-4.75541e-09
0.000970232
0.0389155
0.191715
0.000901523
0.0408226
0.207042
0.000534581
0.0421243
0.217874
-3.92806e-08
0.0427874
0.223481
-0.000534658
0.0427874
0.223481
-0.000901598
0.0421244
0.217874
-0.000970303
0.0408227
0.207042
-0.000669819
0.0389155
0.191715
0.0365532
0.172876
-6.37227e-08
0.000888578
0.0357544
0.170612
-6.19572e-09
0.00127587
0.0377694
0.189967
0.00118103
0.0393585
0.205573
0.000698529
0.0404236
0.216536
-4.72524e-08
0.0409608
0.22219
-0.000698621
0.0409608
0.22219
-0.00118112
0.0404236
0.216536
-0.00127596
0.0393585
0.205573
-0.00088865
0.0377694
0.189967
0.0357544
0.170612
-6.87939e-08
0.00110097
0.0323985
0.161384
-8.1134e-09
0.00157477
0.0339425
0.180822
0.00145418
0.0351299
0.196358
0.00085845
0.0359126
0.207205
-5.47038e-08
0.0363041
0.212777
-0.000858557
0.0363041
0.212777
-0.00145428
0.0359126
0.207205
-0.00157486
0.0351299
0.196358
-0.00110105
0.0339425
0.180822
0.0323985
0.161384
-7.13567e-08
0.00131157
0.027199
0.146486
-1.0417e-08
0.00187101
0.0282385
0.165734
0.00172152
0.029026
0.180982
0.00101349
0.0295407
0.191557
-6.07011e-08
0.029797
0.196967
-0.00101361
0.029797
0.196967
-0.00172163
0.0295407
0.191557
-0.0018711
0.029026
0.180982
-0.00131165
0.0282385
0.165734
0.027199
0.146486
-7.1046e-08
0.00154083
0.127072
-1.2487e-08
0.0209431
0.0021803
0.146017
0.0215286
0.00199342
0.160845
0.0219892
0.00116813
0.171053
0.0222987
-6.35036e-08
0.176253
0.0224529
-0.00116826
0.176253
0.0224529
-0.00199353
0.171053
0.0222987
-0.00218039
0.160845
0.0219892
-0.00154091
0.146017
0.0215286
0.127072
-6.65894e-08
0.0209431
2.52382e-06
0.00119023
0.0302314
-3.79387e-10
2.59813e-07
0.00132269
0.0333688
3.43365e-07
0.0014385
0.0360116
2.04545e-07
0.00152695
0.0379232
-2.42568e-09
0.00157421
0.0389268
-2.09489e-07
0.00157421
0.0389268
-3.48279e-07
0.00152695
0.0379232
-2.65557e-07
0.0014385
0.0360116
-2.5299e-06
0.00132269
0.0333688
0.00119023
0.0302314
-6.64874e-09
2.86217e-05
0.00427833
0.0810203
-9.71424e-10
3.63002e-05
0.00472204
0.0894234
3.29683e-05
0.00510439
0.0964739
1.94006e-05
0.00538843
0.10156
-7.79885e-09
0.00553899
0.104225
-1.94164e-05
0.00553899
0.104225
-3.29845e-05
0.00538843
0.10156
-3.63174e-05
0.0051044
0.0964739
-2.86391e-05
0.00472205
0.0894234
0.00427833
0.0810203
-1.81231e-08
7.76063e-05
0.00823756
0.119663
-1.63844e-09
0.000108958
0.00903643
0.132183
9.99534e-05
0.00971788
0.142631
5.91203e-05
0.0102147
0.150141
-1.33504e-08
0.0104764
0.154068
-5.91471e-05
0.0104764
0.154068
-9.99806e-05
0.0102147
0.150141
-0.000108986
0.00971789
0.142631
-7.76341e-05
0.00903644
0.132183
0.00823756
0.119663
-2.86316e-08
0.000149226
0.0120591
0.146875
-2.36479e-09
0.000215457
0.0131437
0.162448
0.000199376
0.0140592
0.175358
0.000118153
0.0147162
0.184598
-1.90624e-08
0.0150601
0.189418
-0.000118191
0.0150601
0.189418
-0.000199415
0.0147162
0.184598
-0.000215495
0.0140592
0.175358
-0.000149263
0.0131437
0.162448
0.0120591
0.146875
-3.75886e-08
0.000240631
0.0150007
0.163589
-3.19696e-09
0.00034932
0.0162381
0.181279
0.000324248
0.0172695
0.195836
0.000192216
0.0179986
0.206206
-2.4905e-08
0.0183772
0.2116
-0.000192266
0.0183772
0.2116
-0.000324297
0.0179986
0.206206
-0.000349367
0.0172696
0.195836
-0.000240676
0.0162381
0.181279
0.0150007
0.163589
-4.50028e-08
0.000346859
0.0166354
0.170894
-4.16735e-09
0.00050229
0.0178778
0.18992
0.000466307
0.018897
0.20545
0.000276293
0.0196061
0.216456
-3.08024e-08
0.0199712
0.222163
-0.000276354
0.0199712
0.222163
-0.000466366
0.0196061
0.216456
-0.000502346
0.018897
0.20545
-0.000346911
0.0178778
0.18992
0.0166354
0.170894
-5.06713e-08
0.000461198
0.0168325
0.169954
-5.37473e-09
0.00066527
0.0179514
0.189689
0.0006171
0.0188513
0.205667
0.000365353
0.0194673
0.216927
-3.65602e-08
0.0197817
0.222745
-0.000365425
0.0197817
0.222745
-0.000617168
0.0194673
0.216927
-0.000665333
0.0188513
0.205667
-0.000461255
0.0179514
0.189689
0.0168325
0.169954
-5.45008e-08
0.000577715
0.0157007
0.161938
-6.85061e-09
0.000831355
0.0166058
0.181914
0.000770128
0.0173184
0.197952
0.000455412
0.0177986
0.209188
-4.17025e-08
0.0180416
0.214973
-0.000455494
0.0180416
0.214973
-0.000770204
0.0177986
0.209188
-0.000831424
0.0173184
0.197952
-0.000577775
0.0166058
0.181914
0.0157007
0.161938
-5.62487e-08
0.000696667
0.0135149
0.147975
-8.59405e-09
0.000998758
0.0141643
0.167874
0.000921931
0.0146661
0.183711
0.000543842
0.0150002
0.194733
-4.55614e-08
0.0151681
0.200384
-0.00054393
0.0151681
0.200384
-0.000922013
0.0150002
0.194733
-0.000998829
0.0146661
0.183711
-0.000696726
0.0141643
0.167874
0.0135149
0.147975
-5.56356e-08
0.000817008
0.129121
-1.01917e-08
0.0106491
0.00116355
0.148792
0.0110425
0.00106943
0.164255
0.0113511
0.000628794
0.174934
0.0115601
-4.69759e-08
0.180385
0.0116651
-0.000628885
0.180385
0.0116651
-0.00106951
0.174934
0.0115601
-0.00116362
0.164255
0.0113511
-0.000817064
0.148792
0.0110425
0.129121
-5.18003e-08
0.0106491
-5.26953e-06
0.000505379
0.0297313
-2.90165e-10
-7.92043e-06
0.000555777
0.0328157
-6.41535e-06
0.000598474
0.0354116
-3.56813e-06
0.00063084
0.0372895
-1.87692e-09
0.000647873
0.0382754
3.56428e-06
0.000647873
0.0382754
6.41123e-06
0.00063084
0.0372895
7.91606e-06
0.000598475
0.0354116
5.26491e-06
0.000555778
0.0328157
0.00050538
0.0297313
-5.07107e-09
-2.15593e-06
0.00174774
0.0797801
-7.79836e-10
-3.8001e-06
0.00192424
0.0880566
-2.57188e-06
0.00207498
0.0949962
-1.1025e-06
0.002187
0.100002
-5.98801e-09
0.00224629
0.102625
1.09031e-06
0.00224629
0.102625
2.55925e-06
0.002187
0.100002
3.7868e-06
0.00207498
0.0949962
2.14175e-06
0.00192424
0.0880566
0.00174774
0.0797801
-1.3906e-08
1.3137e-05
0.00338277
0.118015
-1.31956e-09
1.91536e-05
0.00371716
0.130384
1.8785e-05
0.00400257
0.140704
1.16494e-05
0.00421179
0.148123
-1.02334e-08
0.00432229
0.152003
-1.167e-05
0.00432229
0.152003
-1.8806e-05
0.00421179
0.148123
-1.91748e-05
0.00400258
0.140704
-1.3158e-05
0.00371717
0.130384
0.00338277
0.118015
-2.16785e-08
4.05501e-05
0.00504657
0.145171
-1.89828e-09
6.00581e-05
0.00552388
0.160621
5.70626e-05
0.0059288
0.173434
3.44334e-05
0.00622187
0.182611
-1.45418e-08
0.00637592
0.187399
-3.44625e-05
0.00637592
0.187399
-5.70918e-05
0.00622188
0.182611
-6.00871e-05
0.00592881
0.173434
-4.05783e-05
0.00552388
0.160621
0.00504657
0.145171
-2.84358e-08
7.90748e-05
0.00642148
0.162135
-2.54472e-09
0.000116734
0.00699253
0.179773
0.000110051
0.00747205
0.194299
6.59235e-05
0.00781457
0.204658
-1.88647e-08
0.00799347
0.210048
-6.59611e-05
0.00799347
0.210048
-0.000110088
0.00781457
0.204658
-0.00011677
0.00747205
0.194299
-7.91091e-05
0.00699254
0.179773
0.00642149
0.162135
-3.40908e-08
0.000126761
0.00728665
0.169902
-3.27563e-09
0.000185937
0.0078863
0.188967
0.00017455
0.0083827
0.204551
0.000104185
0.00873231
0.215609
-2.31302e-08
0.00891356
0.221347
-0.000104231
0.00891356
0.221347
-0.000174594
0.00873231
0.215609
-0.000185979
0.00838271
0.204551
-0.000126801
0.00788631
0.188967
0.00728666
0.169902
-3.84556e-08
0.000180802
0.00753528
0.169524
-4.15703e-09
0.000263721
0.00809909
0.189394
0.000246838
0.00855743
0.205509
0.000146985
0.00887544
0.216883
-2.71937e-08
0.00903897
0.222767
-0.000147038
0.00903897
0.222767
-0.000246889
0.00887545
0.216883
-0.000263769
0.00855744
0.205509
-0.000180845
0.0080991
0.189394
0.00753529
0.169524
-4.14677e-08
0.000238642
0.00716926
0.162065
-5.21536e-09
0.000346865
0.0076455
0.18226
0.000323742
0.00802506
0.198508
0.000192336
0.00828449
0.20991
-3.07405e-08
0.00841674
0.215787
-0.000192396
0.00841675
0.215787
-0.000323799
0.0082845
0.20991
-0.000346917
0.00802507
0.198508
-0.000238687
0.00764551
0.18226
0.00716927
0.162065
-4.29621e-08
0.000300632
0.00627847
0.148565
-6.43349e-09
0.000434405
0.00663711
0.168748
0.000403336
0.0069174
0.18485
0.000238787
0.00710636
0.196076
-3.33482e-08
0.00720194
0.201838
-0.000238853
0.00720194
0.201838
-0.000403397
0.00710636
0.196076
-0.000434459
0.00691741
0.18485
-0.000300677
0.00663712
0.168748
0.00627848
0.148565
-4.27718e-08
0.000364791
0.130017
-7.52823e-09
0.00501786
0.000523356
0.150023
0.00524772
0.000483673
0.165783
0.00542895
0.000285336
0.176686
0.00555251
-3.4355e-08
0.182257
0.00561492
-0.000285403
0.182257
0.00561492
-0.000483734
0.176686
0.00555251
-0.000523409
0.165783
0.00542895
-0.000364834
0.150023
0.00524773
0.130017
-4.04655e-08
0.00501786
-5.60558e-07
0.000151408
0.0295804
-1.97389e-10
-1.26328e-06
0.000167937
0.0326485
-9.57285e-07
0.000182435
0.0352288
-5.27009e-07
0.00019385
0.0370952
-1.45681e-09
0.000199953
0.0380749
5.24027e-07
0.000199953
0.0380749
9.54207e-07
0.00019385
0.0370952
1.25997e-06
0.000182436
0.0352288
5.57098e-07
0.000167937
0.0326485
0.000151408
0.0295804
-3.55047e-09
1.60465e-06
0.000598312
0.0793316
-5.31297e-10
1.53653e-06
0.00066278
0.0875619
1.5573e-06
0.000718894
0.0944597
9.92049e-07
0.000761397
0.0994349
-4.56835e-09
0.000784102
0.102042
-1.00128e-06
0.000784103
0.102042
-1.56671e-06
0.000761398
0.0994349
-1.54604e-06
0.000718895
0.0944597
-1.61403e-06
0.000662781
0.0875618
0.000598313
0.0793316
-9.75573e-09
8.06937e-06
0.00123365
0.117371
-9.2912e-10
1.10455e-05
0.00136314
0.129681
1.03378e-05
0.00147511
0.139948
6.21524e-06
0.00155836
0.14733
-7.75431e-09
0.00160265
0.151191
-6.23081e-06
0.00160265
0.151191
-1.03535e-05
0.00155836
0.14733
-1.10613e-05
0.00147512
0.139948
-8.08473e-06
0.00136315
0.129681
0.00123365
0.117371
-1.55481e-08
1.93744e-05
0.00191727
0.144468
-1.35991e-09
2.79117e-05
0.00211051
0.159865
2.61189e-05
0.00227631
0.172635
1.56124e-05
0.00239784
0.181782
-1.09308e-08
0.00246217
0.186555
-1.56342e-05
0.00246217
0.186555
-2.61406e-05
0.00239784
0.181782
-2.79331e-05
0.00227632
0.172635
-1.93949e-05
0.00211052
0.159865
0.00191727
0.144468
-2.05855e-08
3.55746e-05
0.00251691
0.161499
-1.83742e-09
5.191e-05
0.00275705
0.17911
4.86319e-05
0.00296096
0.193618
2.90212e-05
0.00310843
0.203967
-1.40622e-08
0.003186
0.209353
-2.90492e-05
0.003186
0.209353
-4.86595e-05
0.00310844
0.203967
-5.19366e-05
0.00296096
0.193618
-3.55997e-05
0.00275705
0.17911
0.00251692
0.161499
-2.48407e-08
5.61932e-05
0.00293019
0.169433
-2.36304e-09
8.21322e-05
0.00319097
0.188507
7.69417e-05
0.00340944
0.204108
4.58658e-05
0.00356526
0.215183
-1.70986e-08
0.00364662
0.220932
-4.58996e-05
0.00364662
0.220932
-7.69746e-05
0.00356527
0.215183
-8.21634e-05
0.00340944
0.204108
-5.6222e-05
0.00319098
0.188507
0.0029302
0.169433
-2.8198e-08
8.02483e-05
0.00309698
0.169277
-2.97857e-09
0.000117117
0.0033498
0.189198
0.000109626
0.00355802
0.205368
6.52762e-05
0.00370438
0.216789
-1.99505e-08
0.00378017
0.222698
-6.53156e-05
0.00378017
0.222698
-0.000109663
0.00370438
0.216789
-0.000117152
0.00355803
0.205368
-8.028e-05
0.0033498
0.189198
0.00309698
0.169277
-3.06411e-08
0.000106691
0.00300268
0.162053
-3.69625e-09
0.000155408
0.00322263
0.182338
0.00014519
0.00340033
0.198676
8.63037e-05
0.0035233
0.21015
-2.24362e-08
0.0035864
0.216067
-8.63478e-05
0.0035864
0.216067
-0.000145231
0.0035233
0.21015
-0.000155446
0.00340033
0.198676
-0.000106725
0.00322264
0.182338
0.00300269
0.162053
-3.20781e-08
0.000135358
0.00267379
0.148758
-4.46142e-09
0.000195995
0.00284473
0.169066
0.000182233
0.00297966
0.185285
0.000107989
0.00307151
0.196602
-2.43161e-08
0.00311821
0.202414
-0.000108036
0.00311822
0.202414
-0.000182277
0.00307152
0.196602
-0.000196035
0.00297967
0.185285
-0.000135392
0.00284473
0.169066
0.00267379
0.148758
-3.24534e-08
0.000163379
0.130356
-5.06571e-09
0.00217157
0.000235529
0.150511
0.00228425
0.000218438
0.166406
0.00237328
0.000129151
0.177413
0.00243429
-2.52176e-08
0.183039
0.00246524
-0.000129201
0.183039
0.00246524
-0.000218483
0.177413
0.00243429
-0.000235569
0.166406
0.00237329
-0.000163413
0.150511
0.00228425
0.130356
-3.14041e-08
0.00217157
-1.20873e-06
6.16707e-05
0.02952
-1.46948e-10
-1.75653e-06
6.76467e-05
0.0325814
-1.43824e-06
7.27554e-05
0.0351558
-8.02634e-07
7.67238e-05
0.0370179
-1.10623e-09
7.88158e-05
0.0379953
8.00402e-07
7.88158e-05
0.0379953
1.43596e-06
7.67239e-05
0.0370179
1.75421e-06
7.27556e-05
0.0351558
1.20637e-06
6.76469e-05
0.0325814
6.16709e-05
0.02952
-2.42308e-09
-1.59664e-06
0.000229866
0.079165
-4.20612e-10
-2.4264e-06
0.000253716
0.0873766
-2.02486e-06
0.000274346
0.0942577
-1.11253e-06
0.000289983
0.0992207
-3.43027e-09
0.00029831
0.101821
1.10565e-06
0.000298311
0.101821
2.01795e-06
0.000289984
0.0992207
2.4195e-06
0.000274347
0.0942577
1.58982e-06
0.000253717
0.0873766
0.000229867
0.079165
-6.73933e-09
2.04313e-07
0.000471257
0.11713
-6.9478e-10
1.17787e-07
0.000520945
0.129414
2.68806e-07
0.000563837
0.139659
2.59607e-07
0.000595818
0.147024
-5.76342e-09
0.000612868
0.150877
-2.71103e-07
0.000612869
0.150877
-2.80363e-07
0.000595819
0.147024
-1.29102e-07
0.000563839
0.139659
-2.15229e-07
0.000520946
0.129414
0.000471258
0.11713
-1.08037e-08
4.01311e-06
0.000739643
0.144196
-9.80648e-10
5.86319e-06
0.000816252
0.159568
5.68375e-06
0.00088209
0.172317
3.48566e-06
0.000930601
0.181449
-8.0668e-09
0.000956353
0.186215
-3.50174e-06
0.000956353
0.186215
-5.69963e-06
0.000930602
0.181449
-5.87862e-06
0.000882092
0.172317
-4.02775e-06
0.000816255
0.159568
0.000739645
0.144196
-1.43954e-08
1.01259e-05
0.000984988
0.161244
-1.29235e-09
1.4937e-05
0.00108317
0.178838
1.41964e-05
0.00116682
0.193334
8.55891e-06
0.0012277
0.203675
-1.02986e-08
0.00125984
0.209058
-8.57936e-06
0.00125984
0.209058
-1.42165e-05
0.0012277
0.203675
-1.49562e-05
0.00116682
0.193334
-1.01439e-05
0.00108317
0.178838
0.000984991
0.161244
-1.7518e-08
1.83067e-05
0.00116444
0.169235
-1.63446e-09
2.69889e-05
0.0012742
0.188307
2.55087e-05
0.00136656
0.203909
1.52981e-05
0.0014329
0.214988
-1.2434e-08
0.00146767
0.22074
-1.53227e-05
0.00146767
0.22074
-2.55326e-05
0.0014329
0.214988
-2.70115e-05
0.00136656
0.203909
-1.83275e-05
0.0012742
0.188307
0.00116444
0.169235
-2.00707e-08
2.82055e-05
0.00124923
0.169164
-2.01275e-09
4.14855e-05
0.0013586
0.1891
3.9096e-05
0.00144917
0.205288
2.33811e-05
0.00151331
0.216724
-1.44257e-08
0.00154666
0.222643
-2.34095e-05
0.00154666
0.222643
-3.91233e-05
0.00151331
0.216724
-4.1511e-05
0.00144917
0.205288
-2.82285e-05
0.00135861
0.1891
0.00124923
0.169164
-2.20385e-08
3.94514e-05
0.00122801
0.162035
-2.41865e-09
5.7879e-05
0.00132575
0.182353
5.43725e-05
0.00140522
0.198723
3.2429e-05
0.00146061
0.210225
-1.61777e-08
0.00148916
0.216157
-3.24608e-05
0.00148916
0.216157
-5.44027e-05
0.00146061
0.210225
-5.79068e-05
0.00140522
0.198723
-3.9476e-05
0.00132576
0.182353
0.00122802
0.162035
-2.33907e-08
5.20665e-05
0.00110674
0.148828
-2.82239e-09
7.58094e-05
0.00118486
0.169183
7.07803e-05
0.00124691
0.185448
4.20498e-05
0.00128943
0.196802
-1.75709e-08
0.00131113
0.202634
-4.20843e-05
0.00131113
0.202634
-7.08127e-05
0.00128943
0.196802
-7.58388e-05
0.00124692
0.185448
-5.2092e-05
0.00118486
0.169183
0.00110674
0.148828
-2.40167e-08
6.47759e-05
0.13049
-3.18886e-09
0.000907515
9.38594e-05
0.150706
0.00096061
8.739e-05
0.166657
0.00100275
5.17897e-05
0.177706
0.00103175
-1.84442e-08
0.183356
0.0010465
-5.18258e-05
0.183356
0.0010465
-8.74237e-05
0.177706
0.00103175
-9.38894e-05
0.166657
0.00100276
-6.48015e-05
0.150706
0.00096061
0.13049
-2.38651e-08
0.000907515
-2.81537e-07
1.47627e-05
0.0295055
-8.39132e-11
-4.55836e-07
1.63976e-05
0.0325651
-3.74453e-07
1.79038e-05
0.0351378
-2.11229e-07
1.9147e-05
0.0369986
-8.13055e-10
1.98188e-05
0.0379753
2.096e-07
1.98188e-05
0.0379753
3.72826e-07
1.9147e-05
0.0369986
4.54203e-07
1.79039e-05
0.0351378
2.79928e-07
1.63978e-05
0.0325651
1.47629e-05
0.0295055
-1.5868e-09
-3.68488e-07
6.78772e-05
0.0791122
-2.54588e-10
-6.71185e-07
7.56343e-05
0.0873177
-5.83e-07
8.25652e-05
0.094193
-3.28498e-07
8.79594e-05
0.0991517
-2.50003e-09
9.08711e-05
0.10175
3.23512e-07
9.08712e-05
0.10175
5.78077e-07
8.79596e-05
0.0991517
6.66337e-07
8.25656e-05
0.094193
3.63768e-07
7.56349e-05
0.0873177
6.78776e-05
0.0791122
-4.45884e-09
2.5447e-07
0.000151706
0.117046
-4.26918e-10
1.85208e-07
0.000169019
0.12932
1.84801e-07
0.000184265
0.139557
1.26366e-07
0.000195849
0.146917
-4.17631e-09
0.00020208
0.150766
-1.34672e-07
0.00020208
0.150766
-1.92982e-07
0.000195849
0.146917
-1.92991e-07
0.000184265
0.139557
-2.61508e-07
0.00016902
0.12932
0.000151707
0.117046
-7.16708e-09
1.67186e-06
0.000250284
0.144095
-6.21223e-10
2.29913e-06
0.00027819
0.159458
2.1562e-06
0.000302533
0.172199
1.29829e-06
0.000320737
0.181325
-5.82003e-09
0.000330475
0.186088
-1.30984e-06
0.000330475
0.186088
-2.16752e-06
0.000320738
0.181325
-2.31e-06
0.000302534
0.172199
-1.68202e-06
0.000278192
0.159458
0.000250285
0.144095
-9.7365e-09
3.99521e-06
0.000345015
0.161145
-8.22317e-10
5.75855e-06
0.000381998
0.178732
5.40549e-06
0.000413909
0.193223
3.2359e-06
0.00043744
0.203561
-7.39687e-09
0.000449946
0.208942
-3.25056e-06
0.000449946
0.208942
-5.41976e-06
0.00043744
0.203561
-5.77215e-06
0.00041391
0.193223
-4.00778e-06
0.000382
0.178732
0.000345017
0.161145
-1.1988e-08
7.19247e-06
0.000418728
0.169154
-1.02757e-09
1.05032e-05
0.00046122
0.188225
9.87294e-06
0.000497396
0.203827
5.90197e-06
0.000523697
0.214906
-8.89325e-09
0.000537574
0.220658
-5.91956e-06
0.000537574
0.220658
-9.88995e-06
0.000523698
0.214906
-1.05192e-05
0.000497398
0.203827
-7.20711e-06
0.000461222
0.188225
0.000418731
0.169154
-1.38716e-08
1.11551e-05
0.000458782
0.169113
-1.24742e-09
1.63542e-05
0.000502134
0.189054
1.53771e-05
0.000538442
0.205248
9.18301e-06
0.000564443
0.216689
-1.02813e-08
0.000578044
0.222612
-9.2033e-06
0.000578044
0.222612
-1.53966e-05
0.000564444
0.216689
-1.63723e-05
0.000538443
0.205247
-1.11715e-05
0.000502136
0.189054
0.000458785
0.169113
-1.54058e-08
1.57435e-05
0.000458941
0.162019
-1.49433e-09
2.3083e-05
0.000498537
0.182349
2.16672e-05
0.00053106
0.198732
1.29159e-05
0.000553956
0.210244
-1.15113e-08
0.000565812
0.216182
-1.29385e-05
0.000565812
0.216182
-2.16889e-05
0.000553957
0.210244
-2.31029e-05
0.000531062
0.198732
-1.57612e-05
0.000498539
0.182349
0.000458943
0.162019
-1.65639e-08
2.09049e-05
0.000419895