/*--------------------------------*- C++ -*----------------------------------*\
| =========                 |                                                 |
| \\      /  F ield         | OpenFOAM: The Open Source CFD Toolbox           |
|  \\    /   O peration     | Version:  2106                                  |
|   \\  /    A nd           | Website:  www.openfoam.com                      |
|    \\/     M anipulation  |                                                 |
\*---------------------------------------------------------------------------*/
FoamFile
{
    version     2.0;
    format      ascii;
    arch        "LSB;label=32;scalar=64";
    class       surfaceScalarField;
    location    "0.13";
    object      phi;
}
// * * * * * * * * * * * * * * * * * * * * * * * * * * * * * * * * * * * * * //

dimensions      [0 3 -1 0 0 0 0];

oriented        oriented;

internalField   nonuniform List<scalar> 
29100
(
0.00117748
0.149869
0.081428
-3.68941e-10
0.0014511
0.154685
0.0894895
0.00124534
0.158056
0.0962251
0.000709378
0.160298
0.101047
-2.35327e-09
0.161422
0.103558
-0.000709382
0.161422
0.103558
-0.00124534
0.160298
0.101047
-0.0014511
0.158056
0.0962251
-0.00117749
0.154685
0.0894895
0.149869
0.081428
-6.17232e-09
0.0023458
0.206184
0.156984
-8.4037e-10
0.00326056
0.210532
0.170668
0.00290859
0.213411
0.181861
0.00168277
0.215187
0.189778
-5.82729e-09
0.216053
0.193871
-0.00168278
0.216053
0.193871
-0.0029086
0.215187
0.189778
-0.00326058
0.213411
0.181861
-0.00234582
0.210532
0.170668
0.206184
0.156984
-1.42982e-08
0.00296955
0.215176
0.186853
-1.26764e-09
0.0042002
0.217636
0.202076
0.0037698
0.219161
0.214332
0.00218318
0.219926
0.222923
-8.60084e-09
0.220265
0.227339
-0.00218319
0.220265
0.227339
-0.00376981
0.219926
0.222923
-0.00420022
0.219161
0.214332
-0.00296957
0.217636
0.202076
0.215176
0.186853
-2.07713e-08
0.00335588
0.199694
0.19411
-1.53836e-09
0.00467649
0.200277
0.209431
0.00418554
0.20049
0.221601
0.00241854
0.200336
0.230066
-1.13001e-08
0.200202
0.234397
-0.00241856
0.200202
0.234397
-0.00418557
0.200336
0.230066
-0.00467651
0.20049
0.221601
-0.0033559
0.200277
0.209431
0.199694
0.19411
-2.60969e-08
0.00352927
0.172863
0.188455
-1.72564e-09
0.00484417
0.172029
0.203306
0.00431955
0.171271
0.214971
0.00249116
0.170479
0.223028
-1.44448e-08
0.170024
0.227134
-0.00249119
0.170024
0.227134
-0.00431958
0.170479
0.223028
-0.0048442
0.171271
0.214971
-0.0035293
0.172029
0.203306
0.172863
0.188455
-3.09666e-08
0.00354737
0.142296
0.175344
-1.92254e-09
0.00481261
0.140579
0.18954
0.00427743
0.139237
0.200584
0.00246367
0.138105
0.208163
-1.8491e-08
0.137487
0.212013
-0.00246371
0.137487
0.212013
-0.00427747
0.138105
0.208163
-0.00481264
0.139237
0.200584
-0.00354741
0.140579
0.18954
0.142296
0.175344
-3.5568e-08
0.00348177
0.11224
0.158068
-2.36295e-09
0.00468173
0.11011
0.171606
0.00414964
0.108517
0.182055
0.00238818
0.10729
0.189185
-2.37853e-08
0.106641
0.192796
-0.00238823
0.106641
0.192796
-0.00414968
0.10729
0.189185
-0.00468178
0.108517
0.182055
-0.00348181
0.11011
0.171606
0.11224
0.158068
-4.00209e-08
0.00337085
0.0849161
0.138616
-3.10429e-09
0.0045193
0.0827059
0.151574
0.00400187
0.0811142
0.161511
0.00230302
0.0799755
0.168256
-3.03192e-08
0.0793906
0.171663
-0.00230308
0.0793906
0.171663
-0.00400192
0.0799754
0.168256
-0.00451935
0.0811142
0.161511
-0.0033709
0.0827059
0.151574
0.0849161
0.138616
-4.44177e-08
0.00326007
0.0613144
0.118175
-3.71682e-09
0.004394
0.0592212
0.13065
0.00389184
0.0578271
0.140168
0.00223867
0.0569047
0.1466
-3.78988e-08
0.056447
0.14984
-0.00223875
0.056447
0.14984
-0.00389191
0.0569047
0.1466
-0.00439406
0.0578271
0.140168
-0.00326012
0.0592212
0.13065
0.0613144
0.118175
-4.81575e-08
0.00340433
0.0974354
-4.68868e-09
0.0414778
0.00448801
0.109519
0.0398998
0.00392036
0.118698
0.0388635
0.00223549
0.124876
0.0382226
-4.6186e-08
0.127982
0.037907
-0.00223558
0.127982
0.037907
-0.00392045
0.124876
0.0382226
-0.00448808
0.118698
0.0388635
-0.00340438
0.109519
0.0398998
0.0974354
-5.12926e-08
0.0414777
-0.000240476
0.035225
0.0464435
-2.33619e-10
-0.000241366
0.038262
0.0512285
-0.000170118
0.0408341
0.0553198
-8.47446e-05
0.04267
0.0582914
-2.80851e-09
0.0436193
0.0598543
8.4739e-05
0.0436193
0.0598543
0.000170112
0.04267
0.0582914
0.000241359
0.0408341
0.0553198
0.000240468
0.038262
0.0512285
0.035225
0.0464435
-8.33592e-09
3.67599e-05
0.0762485
0.115923
-3.44876e-10
0.000212284
0.0815733
0.127181
0.000264684
0.0860068
0.136635
0.000180287
0.089102
0.143431
-7.41022e-09
0.0906888
0.146982
-0.000180302
0.0906888
0.146982
-0.0002647
0.089102
0.143431
-0.000212302
0.0860068
0.136635
-3.67789e-05
0.0815733
0.127181
0.0762485
0.115923
-2.05509e-08
0.000531314
0.103697
0.158873
-8.58562e-10
0.000909305
0.10954
0.173731
0.000896357
0.114333
0.186018
0.000550048
0.117603
0.194769
-1.1769e-08
0.119262
0.199316
-0.000550072
0.119262
0.199316
-0.000896383
0.117603
0.194769
-0.000909333
0.114333
0.186018
-0.000531343
0.10954
0.173731
0.103697
0.158873
-3.07575e-08
0.00106925
0.116125
0.180614
-1.40657e-09
0.00163199
0.121293
0.197115
0.00153827
0.125467
0.210562
0.000919696
0.128235
0.220053
-1.6385e-08
0.129621
0.224959
-0.000919729
0.129621
0.224959
-0.0015383
0.128235
0.220053
-0.00163202
0.125467
0.210562
-0.00106929
0.121293
0.197115
0.116125
0.180614
-3.91618e-08
0.00156981
0.116024
0.186986
-1.9973e-09
0.00227968
0.11996
0.20393
0.00210346
0.123071
0.217543
0.00124147
0.125059
0.227066
-2.16312e-08
0.126035
0.231962
-0.00124151
0.126035
0.231962
-0.0021035
0.125059
0.227066
-0.00227973
0.123071
0.217543
-0.00156986
0.11996
0.20393
0.116024
0.186986
-4.63826e-08
0.00199399
0.106954
0.18242
-2.71683e-09
0.00281437
0.109557
0.199122
0.0025636
0.111542
0.212363
0.00150144
0.112741
0.221544
-2.79501e-08
0.11331
0.22624
-0.0015015
0.11331
0.22624
-0.00256366
0.112741
0.221544
-0.00281442
0.111542
0.212363
-0.00199404
0.109557
0.199122
0.106954
0.18242
-5.25586e-08
0.00232612
0.0923916
0.170303
-3.85272e-09
0.00323055
0.0938254
0.186433
0.00292091
0.0948388
0.199068
0.00170322
0.0953862
0.207757
-3.56894e-08
0.0956287
0.21218
-0.00170329
0.0956287
0.21218
-0.00292098
0.0953862
0.207757
-0.00323062
0.0948388
0.199068
-0.00232618
0.0938254
0.186433
0.0923916
0.170303
-5.76871e-08
0.00256757
0.0752383
0.153202
-5.3992e-09
0.00354793
0.075759
0.16866
0.00319942
0.0760525
0.180646
0.00186212
0.0761522
0.188828
-4.47153e-08
0.0761799
0.192974
-0.00186221
0.0761799
0.192974
-0.0031995
0.0761522
0.188828
-0.00354801
0.0760525
0.180646
-0.00256763
0.075759
0.16866
0.0752382
0.153202
-6.20151e-08
0.00275691
0.0576561
0.133
-7.30086e-09
0.00382415
0.0575214
0.147821
0.00344674
0.0573826
0.159216
0.00200329
0.0572506
0.166945
-5.40599e-08
0.0571764
0.170847
-0.00200339
0.0571764
0.170847
-0.00344684
0.0572506
0.166945
-0.00382424
0.0573826
0.159216
-0.00275698
0.0575214
0.147821
0.0576561
0.133
-6.39551e-08
0.00306217
0.111027
-9.51525e-09
0.0410027
0.00420405
0.125308
0.0405905
0.00375264
0.136211
0.0403213
0.00216614
0.143565
0.0401483
-6.23092e-08
0.147266
0.0400585
-0.00216626
0.147266
0.0400585
-0.00375274
0.143565
0.0401483
-0.00420414
0.136211
0.0403213
-0.00306225
0.125308
0.0405904
0.111027
-6.29311e-08
0.0410026
4.03377e-05
0.00875858
0.0376446
-3.77118e-10
3.67193e-05
0.00966306
0.041569
2.99414e-05
0.0104337
0.0448929
1.6387e-05
0.0110051
0.0472999
-2.44309e-09
0.0113062
0.0485645
-1.63921e-05
0.0113062
0.0485645
-2.9947e-05
0.0110051
0.0472999
-3.67256e-05
0.0104337
0.0448929
-4.03449e-05
0.00966306
0.041569
0.00875858
0.0376446
-8.03188e-09
0.000256877
0.0261025
0.0983225
-7.70502e-10
0.000345452
0.0283775
0.108378
0.000306446
0.0302837
0.116824
0.000178145
0.0316533
0.122911
-6.91652e-09
0.0323677
0.126098
-0.000178159
0.0323677
0.126098
-0.000306461
0.0316533
0.122911
-0.000345469
0.0302837
0.116824
-0.000256896
0.0283775
0.108378
0.0261025
0.0983225
-2.00261e-08
0.000525186
0.0431951
0.141255
-1.29779e-09
0.000739277
0.0463888
0.155506
0.00066639
0.0490212
0.167354
0.000389586
0.0508636
0.175835
-1.12069e-08
0.0518143
0.180259
-0.000389609
0.0518143
0.180259
-0.000666415
0.0508636
0.175835
-0.000739304
0.0490212
0.167354
-0.000525214
0.0463888
0.155506
0.0431951
0.141255
-3.00981e-08
0.000816187
0.0551689
0.167824
-1.79993e-09
0.00116268
0.0586006
0.184557
0.001057
0.0613848
0.198304
0.000619138
0.0632853
0.208069
-1.5642e-08
0.0642541
0.213138
-0.00061917
0.0642541
0.213138
-0.00105704
0.0632853
0.208069
-0.00116271
0.0613848
0.198304
-0.000816224
0.0586006
0.184557
0.0551689
0.167824
-3.83065e-08
0.00110701
0.0607261
0.180322
-2.34733e-09
0.00157324
0.0638509
0.198214
0.00143328
0.0663416
0.212726
0.000839427
0.0679966
0.222948
-2.0745e-08
0.0688282
0.228227
-0.000839469
0.0688282
0.228227
-0.00143332
0.0679966
0.222948
-0.00157329
0.0663416
0.212727
-0.00110705
0.0638509
0.198214
0.0607261
0.180322
-4.51296e-08
0.00138171
0.0603747
0.18139
-3.1146e-09
0.0019484
0.0628802
0.199526
0.00177305
0.0648306
0.214049
0.00103735
0.0660863
0.22419
-2.6718e-08
0.0667062
0.229399
-0.00103741
0.0667062
0.229399
-0.0017731
0.0660863
0.22419
-0.00194846
0.0648306
0.214049
-0.00138176
0.0628802
0.199526
0.0603747
0.18139
-5.04742e-08
0.00162388
0.0554343
0.17362
-4.38993e-09
0.00227385
0.0572141
0.191449
0.00206607
0.0585522
0.205555
0.00120774
0.0593815
0.21532
-3.35692e-08
0.0597823
0.220311
-0.00120781
0.0597823
0.220311
-0.00206614
0.0593815
0.21532
-0.00227391
0.0585523
0.205555
-0.00162393
0.0572141
0.191449
0.0554343
0.17362
-5.41042e-08
0.0018241
0.0474621
0.15935
-6.14709e-09
0.00254888
0.0485446
0.176605
0.0023153
0.0493231
0.190109
0.00135298
0.0497856
0.199386
-4.09608e-08
0.0500043
0.204105
-0.00135306
0.0500043
0.204105
-0.00231537
0.0497856
0.199386
-0.00254895
0.0493231
0.190109
-0.00182416
0.0485446
0.176605
0.0474621
0.15935
-5.63198e-08
0.00199741
0.0379205
0.140544
-8.2143e-09
0.00279713
0.0384108
0.157155
0.0025395
0.0387616
0.170035
0.00148255
0.0389651
0.178822
-4.77802e-08
0.0390604
0.183273
-0.00148264
0.0390604
0.183273
-0.00253958
0.0389651
0.178822
-0.0027972
0.0387616
0.170035
-0.00199747
0.0384108
0.157155
0.0379205
0.140544
-5.56291e-08
0.00222446
0.118755
-1.08261e-08
0.0279678
0.00308275
0.134778
0.0280828
0.00277753
0.147093
0.0281846
0.00161301
0.155442
0.028253
-5.24675e-08
0.159655
0.0282847
-0.00161311
0.159655
0.0282847
-0.00277762
0.155442
0.0282531
-0.00308283
0.147093
0.0281846
-0.00222452
0.134778
0.0280829
0.118755
-5.14579e-08
0.0279678
-3.09194e-05
0.00330335
0.0343721
-2.66103e-10
-4.40777e-05
0.00363571
0.0379465
-3.64512e-05
0.00391957
0.0409657
-2.03164e-05
0.00412988
0.0431539
-2.09668e-09
0.00423993
0.0443043
2.03121e-05
0.00423993
0.0443043
3.64464e-05
0.00412988
0.0431539
4.40725e-05
0.00391957
0.0409657
3.09133e-05
0.00363571
0.0379465
0.00330335
0.0343722
-6.84245e-09
-6.08582e-06
0.00992533
0.0917066
-5.4232e-10
-6.5427e-06
0.0108533
0.101161
-1.75112e-06
0.0116437
0.109095
1.21432e-06
0.012217
0.114821
-5.82536e-09
0.0125171
0.117822
-1.22644e-06
0.0125171
0.117822
1.7384e-06
0.012217
0.114821
6.52793e-06
0.0116437
0.109095
6.06963e-06
0.0108533
0.101161
0.00992533
0.0917066
-1.71505e-08
7.34568e-05
0.0171995
0.133907
-1.03487e-09
0.000111781
0.0186676
0.147653
0.000108337
0.0199061
0.159095
6.66465e-05
0.0207893
0.167305
-9.41286e-09
0.0212489
0.171594
-6.66658e-05
0.0212489
0.171594
-0.000108358
0.0207893
0.167305
-0.000111803
0.0199061
0.159095
-7.34805e-05
0.0186676
0.147653
0.0171995
0.133907
-2.55515e-08
0.000191836
0.0232247
0.161607
-1.51932e-09
0.000285174
0.0249965
0.178134
0.00026894
0.0264724
0.191754
0.000161513
0.0275063
0.201459
-1.31186e-08
0.0280399
0.206508
-0.00016154
0.0280399
0.206508
-0.000268968
0.0275064
0.201459
-0.000285204
0.0264724
0.191754
-0.000191867
0.0249966
0.178134
0.0232247
0.161607
-3.23893e-08
0.00033485
0.026969
0.176243
-2.09346e-09
0.00048909
0.0287747
0.194281
0.000456338
0.0302544
0.208977
0.000271601
0.0312711
0.219368
-1.71677e-08
0.0317906
0.224748
-0.000271636
0.0317906
0.224748
-0.000456373
0.0312711
0.219368
-0.000489126
0.0302544
0.208977
-0.000334886
0.0287747
0.194281
0.026969
0.176243
-3.78958e-08
0.000489099
0.0281442
0.179725
-2.85987e-09
0.000704046
0.0297679
0.198318
0.000652216
0.0310698
0.213286
0.000386182
0.0319453
0.223782
-2.16778e-08
0.0323875
0.229188
-0.000386226
0.0323875
0.229188
-0.000652259
0.0319453
0.223782
-0.000704089
0.0310698
0.213286
-0.00048914
0.029768
0.198318
0.0281442
0.179725
-4.19569e-08
0.000641798
0.0269725
0.17415
-4.03234e-09
0.00091491
0.0282818
0.192663
0.000843737
0.0293017
0.207394
0.000498044
0.0299718
0.21764
-2.65487e-08
0.0303061
0.222891
-0.000498096
0.0303061
0.222891
-0.000843788
0.0299718
0.21764
-0.000914959
0.0293017
0.207394
-0.000641843
0.0282818
0.192663
0.0269725
0.17415
-4.43506e-08
0.000784555
0.0239672
0.161571
-5.67902e-09
0.00111488
0.0249067
0.17965
0.0010259
0.0256158
0.193884
0.000604438
0.0260721
0.203707
-3.15161e-08
0.0262975
0.208718
-0.0006045
0.0262975
0.208718
-0.00102596
0.0260721
0.203707
-0.00111493
0.0256158
0.193884
-0.000784602
0.0249067
0.17965
0.0239672
0.161571
-4.53033e-08
0.000923297
0.0197562
0.143832
-7.58429e-09
0.00131202
0.0203337
0.161339
0.00120399
0.0207648
0.174994
0.000707562
0.0210406
0.18435
-3.57134e-08
0.0211764
0.189102
-0.000707632
0.0211764
0.189102
-0.00120405
0.0210407
0.18435
-0.00131208
0.0207648
0.174994
-0.000923342
0.0203337
0.161339
0.0197562
0.143832
-4.36569e-08
0.00109075
0.122474
-9.78835e-09
0.0149461
0.00153317
0.139431
0.0152378
0.00139499
0.152528
0.0154679
0.000814928
0.16144
0.015622
-3.80355e-08
0.165948
0.015698
-0.000815002
0.165948
0.015698
-0.00139506
0.16144
0.015622
-0.00153322
0.152528
0.0154679
-0.00109079
0.139431
0.0152379
0.122474
-3.90296e-08
0.0149461
3.88413e-06
0.000901508
0.0334668
-2.56186e-10
1.88781e-06
0.00100444
0.036944
1.38124e-06
0.00109501
0.0398712
6.47205e-07
0.00116441
0.0419902
-1.77903e-09
0.00120148
0.0431034
-6.50799e-07
0.00120148
0.0431034
-1.38507e-06
0.00116441
0.0419902
-1.89188e-06
0.00109501
0.0398712
-3.8889e-06
0.00100444
0.036944
0.000901509
0.0334668
-5.25492e-09
2.55204e-05
0.00324732
0.0893353
-5.22831e-10
3.13261e-05
0.00358334
0.0985762
2.75219e-05
0.00387416
0.10632
1.59254e-05
0.00408983
0.111907
-4.86235e-09
0.00420409
0.114836
-1.59354e-05
0.00420409
0.114836
-2.75323e-05
0.00408983
0.111907
-3.13374e-05
0.00387416
0.10632
-2.55327e-05
0.00358334
0.0985762
0.00324732
0.0893353
-1.32041e-08
6.2501e-05
0.00619762
0.130895
-8.74128e-10
8.60306e-05
0.00678477
0.144428
7.78165e-05
0.00728652
0.155691
4.56845e-05
0.00765075
0.163776
-7.75071e-09
0.00784228
0.168002
-4.57004e-05
0.00784228
0.168002
-7.78331e-05
0.00765075
0.163776
-8.60484e-05
0.00728652
0.155691
-6.25197e-05
0.00678477
0.144428
0.00619763
0.130895
-1.98739e-08
0.000114408
0.00895011
0.15874
-1.26053e-09
0.00016317
0.00972
0.17515
0.000149771
0.0103695
0.188684
8.83652e-05
0.0108325
0.198339
-1.06056e-08
0.011074
0.203365
-8.83868e-05
0.011074
0.203365
-0.000149793
0.0108325
0.198339
-0.000163194
0.0103695
0.188684
-0.000114432
0.00972
0.17515
0.00895012
0.15874
-2.52779e-08
0.000178588
0.010957
0.174058
-1.76357e-09
0.000256924
0.0118019
0.192121
0.000237089
0.0125042
0.206862
0.000140081
0.0129959
0.217302
-1.35767e-08
0.01325
0.222712
-0.000140108
0.01325
0.222712
-0.000237116
0.0129959
0.217302
-0.000256952
0.0125042
0.206862
-0.000178616
0.0118019
0.192121
0.010957
0.174058
-2.9589e-08
0.000251034
0.0119456
0.178486
-2.41196e-09
0.000360705
0.012759
0.197251
0.000333199
0.0134226
0.212395
0.000196851
0.0138788
0.223035
-1.67331e-08
0.0141122
0.228523
-0.000196885
0.0141122
0.228523
-0.000333232
0.0138788
0.223035
-0.000360738
0.0134226
0.212395
-0.000251066
0.012759
0.197251
0.0119456
0.178486
-3.27081e-08
0.000326779
0.0118802
0.173889
-3.28127e-09
0.000468018
0.0125802
0.1927
0.0004322
0.0131387
0.207714
0.000255217
0.0135153
0.21818
-1.99911e-08
0.013706
0.223552
-0.000255257
0.013706
0.223552
-0.000432239
0.0135153
0.21818
-0.000468054
0.0131387
0.207714
-0.000326813
0.0125802
0.1927
0.0118802
0.173889
-3.44682e-08
0.000401725
0.0108968
0.162152
-4.44589e-09
0.000574648
0.0114352
0.180622
0.00053039
0.0118546
0.195212
0.000312963
0.0121327
0.205307
-2.31451e-08
0.0122722
0.210465
-0.000313009
0.0122722
0.210465
-0.000530434
0.0121327
0.205307
-0.000574687
0.0118546
0.195212
-0.00040176
0.0114352
0.180622
0.0108968
0.162152
-3.49598e-08
0.000476842
0.009234
0.145018
-5.78379e-09
0.00068119
0.00959637
0.162974
0.000627155
0.00987486
0.177027
0.000369306
0.0100579
0.186683
-2.56331e-08
0.0101492
0.191594
-0.000369356
0.0101492
0.191594
-0.000627202
0.0100579
0.186683
-0.000681231
0.00987486
0.177027
-0.000476877
0.00959637
0.162974
0.00923401
0.145018
-3.3545e-08
0.000559092
0.12398
-7.34251e-09
0.00716931
0.000790933
0.14142
0.00737568
0.000723738
0.154933
0.00753667
0.000424367
0.164152
0.00764557
-2.67562e-08
0.168822
0.00769999
-0.000424419
0.168822
0.00769999
-0.000723785
0.164152
0.00764557
-0.000790973
0.154933
0.00753668
-0.000559123
0.14142
0.00737568
0.12398
-3.01498e-08
0.00716932
-4.77668e-06
0.000398342
0.0330732
-1.81015e-10
-7.24543e-06
0.000437784
0.0365087
-6.10371e-06
0.00047114
0.0393989
-3.45501e-06
0.000496199
0.0414914
-1.53865e-09
0.000509356
0.0425906
3.45196e-06
0.000509356
0.0425906
6.10051e-06
0.000496199
0.0414914
7.24206e-06
0.00047114
0.0393989
4.77307e-06
0.000437784
0.0365087
0.000398343
0.0330732
-3.8606e-09
-3.69265e-06
0.00132666
0.0884106
-3.88038e-10
-6.02399e-06
0.00145803
0.0975582
-5.04031e-06
0.00157026
0.10522
-2.71969e-06
0.00165313
0.110748
-4.07921e-09
0.00169685
0.113645
2.71145e-06
0.00169685
0.113645
5.03179e-06
0.00165313
0.110748
6.01516e-06
0.00157026
0.10522
3.68335e-06
0.00145803
0.0975582
0.00132666
0.0884106
-9.6969e-09
6.47771e-06
0.0025075
0.129707
-6.35267e-10
9.121e-06
0.00274772
0.143136
8.94827e-06
0.0029526
0.154309
5.62312e-06
0.00310175
0.162331
-6.362e-09
0.00318026
0.166524
-5.63599e-06
0.00318026
0.166524
-8.96156e-06
0.00310175
0.162331
-9.13464e-06
0.0029526
0.154309
-6.49176e-06
0.00274772
0.143136
0.0025075
0.129707
-1.46923e-08
2.49386e-05
0.00366711
0.157555
-9.28175e-10
3.66131e-05
0.0039985
0.173888
3.46546e-05
0.00427901
0.18736
2.09076e-05
0.00448044
0.196974
-8.50406e-09
0.00458588
0.20198
-2.09248e-05
0.00458588
0.20198
-3.46721e-05
0.00448044
0.196974
-3.6631e-05
0.00427901
0.18736
-2.49567e-05
0.00399851
0.173888
0.00366712
0.157555
-1.87581e-08
5.06945e-05
0.00458032
0.173094
-1.29531e-09
7.43609e-05
0.00496328
0.191133
6.98713e-05
0.00528357
0.205862
4.18034e-05
0.00551024
0.2163
-1.05931e-08
0.00562803
0.221712
-4.18247e-05
0.00562803
0.221712
-6.98927e-05
0.00551024
0.2163
-7.43825e-05
0.00528357
0.205862
-5.07158e-05
0.00496328
0.191133
0.00458032
0.173094
-2.20147e-08
8.20811e-05
0.00510562
0.177878
-1.75136e-09
0.000119664
0.00549375
0.196683
0.000111972
0.00581316
0.211873
6.67296e-05
0.00603566
0.222555
-1.26682e-08
0.00615033
0.228068
-6.67549e-05
0.00615033
0.228068
-0.000111997
0.00603566
0.222555
-0.000119689
0.00581316
0.211873
-8.21051e-05
0.00549375
0.196683
0.00510562
0.177878
-2.44002e-08
0.000117018
0.00519049
0.173687
-2.35273e-09
0.000169685
0.00554243
0.192599
0.000158339
0.00582627
0.207712
9.41369e-05
0.0060208
0.218259
-1.47125e-08
0.00612017
0.223676
-9.41661e-05
0.00612017
0.223676
-0.000158367
0.0060208
0.218259
-0.000169712
0.00582627
0.207712
-0.000117044
0.00554243
0.192599
0.00519049
0.173687
-2.58511e-08
0.000153769
0.00485937
0.16233
-3.14285e-09
0.000222466
0.00514545
0.18095
0.000207142
0.00537145
0.195682
0.000122898
0.00552406
0.205888
-1.66545e-08
0.00560136
0.211107
-0.000122931
0.00560136
0.211107
-0.000207174
0.00552406
0.205888
-0.000222495
0.00537145
0.195682
-0.000153795
0.00514545
0.18095
0.00485938
0.16233
-2.64339e-08
0.000193045
0.00419215
0.145492
-4.01114e-09
0.000278296
0.00439823
0.163636
0.000257959
0.00455878
0.17786
0.000152534
0.00466609
0.187646
-1.82136e-08
0.00472011
0.192628
-0.00015257
0.00472011
0.192628
-0.000257993
0.00466609
0.187646
-0.000278326
0.00455878
0.17786
-0.000193071
0.00439823
0.163635
0.00419215
0.145492
-2.58172e-08
0.00023741
0.124633
-4.81794e-09
0.00330125
0.000338364
0.142288
0.00342906
0.000311386
0.15599
0.00352955
0.000183215
0.165348
0.00359796
-1.90537e-08
0.170093
0.00363238
-0.000183252
0.170093
0.00363238
-0.00031142
0.165348
0.00359796
-0.000338393
0.15599
0.00352955
-0.000237434
0.142288
0.00342906
0.124633
-2.39334e-08
0.00330125
1.9145e-07
0.000109336
0.0329637
-1.33934e-10
-2.4174e-07
0.000121691
0.0363875
-2.24103e-07
0.000132608
0.0392663
-1.39394e-07
0.000141119
0.0413502
-1.27548e-09
0.000145701
0.0424448
1.36565e-07
0.000145701
0.0424448
2.21519e-07
0.000141119
0.0413502
2.39163e-07
0.000132608
0.0392663
-1.94044e-07
0.000121691
0.0363875
0.000109336
0.0329637
-2.69552e-09
2.41562e-06
0.000435567
0.088082
-2.97691e-10
2.5903e-06
0.000482476
0.0971973
2.26421e-06
0.000523319
0.10483
1.30809e-06
0.000554074
0.110336
-3.27733e-09
0.000570489
0.113222
-1.31463e-06
0.00057049
0.113222
-2.2708e-06
0.000554074
0.110336
-2.59701e-06
0.00052332
0.10483
-2.42229e-06
0.000482476
0.0971973
0.000435567
0.088082
-6.80763e-09
7.3105e-06
0.000890253
0.129245
-4.76874e-10
9.77798e-06
0.000981702
0.142634
8.85447e-06
0.00106064
0.153772
5.21179e-06
0.00111892
0.161769
-5.04827e-09
0.00114984
0.16595
-5.22193e-06
0.00114984
0.16595
-8.86467e-06
0.00111892
0.161769
-9.78834e-06
0.00106064
0.153772
-7.32081e-06
0.000981703
0.142634
0.000890254
0.129245
-1.04472e-08
1.52473e-05
0.00136456
0.157066
-6.63515e-10
2.16221e-05
0.00149673
0.173367
1.99328e-05
0.00160976
0.186812
1.18034e-05
0.00169194
0.196409
-6.6171e-09
0.00173527
0.201407
-1.18167e-05
0.00173527
0.201407
-1.99461e-05
0.00169194
0.196409
-2.16356e-05
0.00160976
0.186812
-1.52606e-05
0.00149673
0.173367
0.00136456
0.157066
-1.3435e-08
2.62124e-05
0.00176352
0.172668
-8.89663e-10
3.78443e-05
0.00192236
0.190695
3.51463e-05
0.00205664
0.205418
2.08604e-05
0.00215285
0.215853
-8.08757e-09
0.0022032
0.221265
-2.08766e-05
0.0022032
0.221265
-3.51624e-05
0.00215285
0.215853
-3.78604e-05
0.00205664
0.205418
-2.62281e-05
0.00192236
0.190695
0.00176352
0.172668
-1.58883e-08
3.98242e-05
0.00202013
0.177582
-1.17001e-09
5.7729e-05
0.00218682
0.196401
5.37516e-05
0.00232567
0.211608
3.19226e-05
0.00242368
0.222306
-9.50278e-09
0.00247457
0.227828
-3.19415e-05
0.00247457
0.227828
-5.37704e-05
0.00242368
0.222306
-5.77474e-05
0.00232568
0.211608
-3.98419e-05
0.00218682
0.196401
0.00202013
0.177582
-1.77393e-08
5.53765e-05
0.00210122
0.17355
-1.51339e-09
8.02606e-05
0.00225727
0.192503
7.47759e-05
0.00238495
0.207658
4.44001e-05
0.00247369
0.218239
-1.08685e-08
0.00251937
0.223676
-4.44216e-05
0.00251937
0.223676
-7.4797e-05
0.00247369
0.218239
-8.02809e-05
0.00238495
0.207658
-5.53955e-05
0.00225728
0.192503
0.00210122
0.17355
-1.89543e-08
7.21519e-05
0.00200636
0.162352
-1.91721e-09
0.000104529
0.00213725
0.181038
9.73169e-05
0.00224232
0.195832
5.77254e-05
0.00231427
0.206087
-1.21457e-08
0.00235097
0.211333
-5.77494e-05
0.00235097
0.211333
-9.73401e-05
0.00231427
0.206087
-0.00010455
0.00224232
0.195832
-7.21719e-05
0.00213726
0.181038
0.00200636
0.162352
-1.95545e-08
9.01309e-05
0.00176168
0.145647
-2.30676e-09
0.000130099
0.00185937
0.163873
0.000120674
0.00193633
0.178176
7.13929e-05
0.00198833
0.188021
-1.31964e-08
0.00201465
0.193036
-7.14189e-05
0.00201465
0.193036
-0.000120699
0.00198833
0.188021
-0.000130122
0.00193633
0.178176
-9.01512e-05
0.00185937
0.163873
0.00176168
0.145647
-1.93856e-08
0.000108749
0.124874
-2.77048e-09
0.00141228
0.000155694
0.142626
0.00147476
0.000143774
0.156414
0.00152385
8.47878e-05
0.165838
0.00155742
-1.38571e-08
0.170618
0.00157439
-8.4815e-05
0.170618
0.0015744
-0.0001438
0.165838
0.00155742
-0.000155717
0.156414
0.00152385
-0.000108769
0.142626
0.00147476
0.124874
-1.84887e-08
0.00141228
-1.03672e-06
5.63713e-05
0.0329083
-7.00684e-11
-1.52049e-06
6.17627e-05
0.0363262
-1.286e-06
6.62824e-05
0.0391998
-7.29837e-07
6.96941e-05
0.0412799
-9.86426e-10
7.14799e-05
0.0423726
7.2791e-07
7.148e-05
0.0423726
1.28406e-06
6.96943e-05
0.0412799
1.51861e-06
6.62824e-05
0.0391998
1.03486e-06
6.17629e-05
0.0363262
5.63714e-05
0.0329083
-1.86505e-09
-1.36383e-06
0.000193716
0.087946
-1.66724e-10
-2.07762e-06
0.000213092
0.0970467
-1.80709e-06
0.000229628
0.104666
-1.02002e-06
0.00024193
0.110163
-2.53109e-09
0.000248434
0.113044
1.015e-06
0.000248434
0.113044
1.80203e-06
0.00024193
0.110163
2.07274e-06
0.000229628
0.104666
1.359e-06
0.000213093
0.0970467
0.000193716
0.087946
-4.73502e-09
-5.47176e-08
0.000379034
0.12906
-2.99907e-10
-2.17349e-07
0.000417022
0.142431
-1.23891e-07
0.000449452
0.153552
-1.63927e-08
0.00047329
0.161538
-3.8878e-09
0.000485907
0.165712
8.58387e-09
0.000485907
0.165712
1.16118e-07
0.00047329
0.161538
2.09428e-07
0.000449452
0.153552
4.72361e-08
0.000417022
0.142431
0.000379035
0.12906
-7.28155e-09
2.68991e-06
0.000574836
0.156867
-4.28344e-10
3.91826e-06
0.000630746
0.173152
3.75533e-06
0.000678316
0.186583
2.29123e-06
0.000712892
0.196171
-5.05784e-09
0.000731118
0.201164
-2.3013e-06
0.000731118
0.201164
-3.7654e-06
0.000712892
0.196171
-3.92811e-06
0.000678316
0.186583
-2.69949e-06
0.000630747
0.173152
0.000574837
0.156867
-9.36803e-09
6.9694e-06
0.000744292
0.172492
-5.71379e-10
1.0235e-05
0.00081311
0.19051
9.67171e-06
0.000871159
0.205226
5.81245e-06
0.000912843
0.215657
-6.10058e-09
0.000934689
0.221067
-5.82461e-06
0.000934689
0.221067
-9.68379e-06
0.000912844
0.215657
-1.02468e-05
0.00087116
0.205226
-6.98077e-06
0.000813111
0.19051
0.000744293
0.172492
-1.11044e-08
1.25635e-05
0.000858803
0.177455
-7.32712e-10
1.84179e-05
0.000932944
0.196275
1.73321e-05
0.000994683
0.211486
1.03689e-05
0.00103843
0.222188
-7.05413e-09
0.0010612
0.227712
-1.03829e-05
0.0010612
0.227712
-1.7346e-05
0.00103843
0.222188
-1.84315e-05
0.000994683
0.211486
-1.25763e-05
0.000932945
0.196275
0.000858804
0.177455
-1.24581e-08
1.91915e-05
0.000901803
0.173488
-9.20055e-10
2.8064e-05
0.000973147
0.192454
2.6352e-05
0.00103159
0.207623
1.57276e-05
0.00107243
0.218216
-7.94498e-09
0.00109352
0.223659
-1.57434e-05
0.00109352
0.223659
-2.63675e-05
0.00107243
0.218216
-2.80789e-05
0.00103159
0.207623
-1.92055e-05
0.000973148
0.192454
0.000901804
0.173488
-1.34368e-08
2.65933e-05
0.000869727
0.162358
-1.15332e-09
3.88311e-05
0.000931321
0.181067
3.63783e-05
0.000980917
0.195885
2.16617e-05
0.00101508
0.206159
-8.77572e-09
0.00103257
0.211416
-2.16791e-05
0.00103257
0.211416
-3.63952e-05
0.00101508
0.206159
-3.88471e-05
0.000980917
0.195885
-2.6608e-05
0.000931321
0.181067
0.000869728
0.162358
-1.40578e-08
3.48728e-05
0.000770566
0.145711
-1.42642e-09
5.06358e-05
0.000818038
0.163971
4.71782e-05
0.000855622
0.178305
2.79865e-05
0.000881162
0.188175
-9.50445e-09
0.000894132
0.193202
-2.80052e-05
0.000894132
0.193202
-4.71961e-05
0.000881163
0.188174
-5.06524e-05
0.000855623
0.178304
-3.48877e-05
0.000818038
0.163971
0.000770566
0.145711
-1.42195e-08
4.38903e-05
0.124979
-1.64164e-09
0.00062157
6.3101e-05
0.142771
0.000653104
5.84669e-05
0.156596
0.000678047
3.45479e-05
0.166048
0.000695158
-1.01062e-08
0.170843
0.000703831
-3.45676e-05
0.170843
0.000703831
-5.84854e-05
0.166048
0.000695158
-6.31177e-05
0.156596
0.000678047
-4.39049e-05
0.142771
0.000653103
0.124979
-1.39217e-08
0.000621569
-4.18538e-08
1.4084e-05
0.0328943
-4.90961e-11
-1.43518e-07
1.57211e-05
0.0363106
-1.24641e-07
1.71822e-05
0.0391826
-7.43683e-08
1.83571e-05
0.0412615
-7.25517e-10
1.89916e-05
0.0423535
7.29078e-08
1.89916e-05
0.0423535
1.23224e-07
1.83571e-05
0.0412615
1.42113e-07
1.71822e-05
0.0391826
4.05658e-08
1.57212e-05
0.0363106
1.40841e-05
0.0328943
-1.23793e-09
1.60393e-07
6.16748e-05
0.0878982
-1.28501e-10
7.88116e-08
6.85759e-05
0.0969939
5.3593e-08
7.46333e-05
0.104609
2.74968e-08
7.92608e-05
0.110102
-1.88287e-09
8.17447e-05
0.112981
-3.12455e-08
8.17447e-05
0.112981
-5.72572e-08
7.92608e-05
0.110102
-8.23365e-08
7.46334e-05
0.104609
-1.63696e-07
6.85761e-05
0.0969939
6.16751e-05
0.0878982
-3.13715e-09
8.32964e-07
0.000132256
0.128989
-2.05056e-10
1.04402e-06
0.000146582
0.142352
9.2998e-07
0.000159037
0.153468
5.44241e-07
0.000168345
0.161449
-2.89395e-09
0.000173315
0.165621
-5.50005e-07
0.000173315
0.165621
-9.35624e-07
0.000168345
0.161449
-1.04949e-06
0.000159037
0.153468
-8.38098e-07
0.000146583
0.142352
0.000132256
0.128989
-4.88093e-09
2.06653e-06
0.000210305
0.156787
-2.81764e-10
2.87375e-06
0.000232127
0.173065
2.63607e-06
0.000250934
0.186492
1.55839e-06
0.000264779
0.196075
-3.74601e-09
0.000272127
0.201067
-1.56586e-06
0.000272128
0.201067
-2.64339e-06
0.000264779
0.196075
-2.88082e-06
0.000250934
0.186492
-2.07317e-06
0.000232127
0.173065
0.000210305
0.156787
-6.32932e-09
3.8941e-06
0.000280594
0.172418
-3.62422e-10
5.58476e-06
0.000308122
0.190432
5.18174e-06
0.000331599
0.205146
3.07572e-06
0.000348648
0.215576
-4.49142e-09
0.000357637
0.220984
-3.08466e-06
0.000357637
0.220984
-5.1905e-06
0.000348648
0.215576
-5.59318e-06
0.000331599
0.205146
-3.90201e-06
0.000308122
0.190432
0.000280595
0.172418
-7.56262e-09
6.285e-06
0.000330798
0.177398
-4.52346e-10
9.10812e-06
0.000361042
0.196219
8.49272e-06
0.000386498
0.211431
5.04955e-06
0.00040473
0.222135
-5.15872e-09
0.000414273
0.227661
-5.05979e-06
0.000414273
0.227661
-8.50272e-06
0.000404731
0.222135
-9.1177e-06
0.000386498
0.211431
-6.29394e-06
0.000361043
0.196219
0.000330799
0.177398
-8.54038e-09
9.14426e-06
0.00035319
0.173456
-5.62234e-10
1.3299e-05
0.000382786
0.192428
1.24256e-05
0.000407297
0.207603
7.39112e-06
0.000424602
0.218201
-5.77263e-09
0.000433584
0.223648
-7.40254e-06
0.000433584
0.223648
-1.24367e-05
0.000424602
0.218201
-1.33096e-05
0.000407298
0.207603
-9.15402e-06
0.000382787
0.192428
0.000353191
0.173456
-9.27252e-09
1.236e-05
0.000345322
0.162353
-6.7872e-10
1.79951e-05
0.000371283
0.181073
1.68088e-05
0.0003924
0.195901
9.98989e-06
0.00040708
0.206184
-6.34278e-09
0.000414629
0.211445
-1.00024e-05
0.000414629
0.211445
-1.68209e-05
0.00040708
0.206184
-1.80065e-05
0.0003924
0.195901
-1.23704e-05
0.000371283
0.181073