/*--------------------------------*- C++ -*----------------------------------*\
| =========                 |                                                 |
| \\      /  F ield         | OpenFOAM: The Open Source CFD Toolbox           |
|  \\    /   O peration     | Version:  2106                                  |
|   \\  /    A nd           | Website:  www.openfoam.com                      |
|    \\/     M anipulation  |                                                 |
\*---------------------------------------------------------------------------*/
FoamFile
{
    version     2.0;
    format      ascii;
    arch        "LSB;label=32;scalar=64";
    class       surfaceScalarField;
    location    "0.05";
    object      phi;
}
// * * * * * * * * * * * * * * * * * * * * * * * * * * * * * * * * * * * * * //

dimensions      [0 3 -1 0 0 0 0];

oriented        oriented;

internalField   nonuniform List<scalar> 
29100
(
0.000602205
0.0626321
0.0458445
1.77991e-10
0.000749631
0.0641958
0.0503536
0.000644412
0.0651972
0.0541221
0.000367014
0.0658381
0.0568127
-2.34229e-10
0.066153
0.0582119
-0.000367014
0.066153
0.0582119
-0.000644413
0.0658381
0.0568127
-0.000749632
0.0651972
0.0541221
-0.000602206
0.0641958
0.0503536
0.0626321
0.0458445
-1.77216e-09
0.00110045
0.0789689
0.0837446
-4.04337e-10
0.00151966
0.0797633
0.0907248
0.00134871
0.0800797
0.0964266
0.000776897
0.0801997
0.100435
-1.42634e-09
0.0802411
0.102498
-0.000776896
0.0802411
0.102498
-0.00134871
0.0801997
0.100435
-0.00151966
0.0800797
0.0964266
-0.00110045
0.0797633
0.0907248
0.0789689
0.0837446
-2.05179e-09
0.00128496
0.0757573
0.0952117
-5.84635e-10
0.0018067
0.075552
0.102416
0.00160883
0.0751452
0.108194
0.000926015
0.0747481
0.112211
-1.23e-09
0.0745253
0.114263
-0.000926015
0.0745253
0.114263
-0.00160884
0.0747481
0.112211
-0.0018067
0.0751452
0.108194
-0.00128496
0.075552
0.102416
0.0757573
0.0952117
-3.33315e-09
0.00134072
0.0649256
0.0948792
-5.29303e-10
0.00186186
0.0640578
0.101714
0.00165198
0.0632277
0.107113
0.000948108
0.0625458
0.110834
-8.28382e-10
0.0621807
0.112725
-0.000948108
0.0621807
0.112725
-0.00165198
0.0625458
0.110834
-0.00186186
0.0632277
0.107113
-0.00134073
0.0640578
0.101714
0.0649256
0.0948792
-3.99008e-09
0.00131014
0.0522541
0.0888528
-9.16359e-11
0.0017956
0.0510872
0.095241
0.00158837
0.0501163
0.100229
0.000910103
0.049358
0.103645
-6.16313e-10
0.0489581
0.105377
-0.000910105
0.0489581
0.105377
-0.00158838
0.049358
0.103645
-0.0017956
0.0501163
0.100229
-0.00131014
0.0510872
0.095241
0.0522541
0.0888528
-4.6177e-09
0.0012379
0.04033
0.0802807
-3.20495e-10
0.00167667
0.0391171
0.086302
0.00148023
0.0381824
0.0909643
0.000847784
0.0374759
0.0941452
-1.02998e-09
0.0371072
0.0957544
-0.000847787
0.0371072
0.0957544
-0.00148024
0.0374759
0.0941452
-0.00167667
0.0381824
0.0909643
-0.0012379
0.0391171
0.086302
0.04033
0.0802807
-5.174e-09
0.00115646
0.0301093
0.070762
4.27414e-11
0.00155031
0.0289903
0.0765184
0.00136684
0.0281738
0.08095
0.000783154
0.0275776
0.0839642
-1.765e-09
0.0272704
0.0854873
-0.000783157
0.0272704
0.0854873
-0.00136684
0.0275776
0.0839642
-0.00155032
0.0281738
0.08095
-0.00115646
0.0289903
0.0765184
0.0301093
0.070762
-5.96506e-09
0.00107548
0.0217833
0.0610514
5.54633e-10
0.00143493
0.0208112
0.0666199
0.00126605
0.0201353
0.0708892
0.000726517
0.0196658
0.0737849
-2.83373e-09
0.0194291
0.0752466
-0.000726522
0.0194291
0.0752466
-0.00126605
0.0196658
0.0737849
-0.00143493
0.0201353
0.0708892
-0.00107549
0.0208112
0.0666199
0.0217833
0.0610514
-6.98049e-09
0.00100054
0.0152216
0.0514652
-8.38927e-10
0.00134301
0.0143952
0.0568886
0.00118764
0.013863
0.0610336
0.000682515
0.0135184
0.0638376
-4.88438e-09
0.0133506
0.0652515
-0.000682525
0.0133506
0.0652515
-0.00118765
0.0135184
0.0638376
-0.00134302
0.013863
0.0610336
-0.00100054
0.0143952
0.0568886
0.0152216
0.0514652
-6.72432e-09
0.00102316
0.0421243
-2.49193e-09
0.0100814
0.00132551
0.0474064
0.00951621
0.00115465
0.0514333
0.00913034
0.00065742
0.0541513
0.0089008
-7.32567e-09
0.0555203
0.00878976
-0.000657434
0.0555203
0.00878976
-0.00115466
0.0541513
0.0089008
-0.00132552
0.0514333
0.00913033
-0.00102317
0.0474064
0.00951621
0.0421243
-6.94906e-09
0.0100814
-0.000133564
0.0132476
0.0327304
-3.24854e-10
-0.000137182
0.0143083
0.0360489
-9.82343e-05
0.0151845
0.0388986
-4.922e-05
0.0157968
0.0409668
-1.96486e-10
0.0161098
0.0420528
4.92193e-05
0.0161098
0.0420528
9.82338e-05
0.0157968
0.0409668
0.000137181
0.0151845
0.0388986
0.000133562
0.0143083
0.0360489
0.0132476
0.0327304
-1.67775e-09
-0.000112622
0.0251425
0.0719624
3.03311e-10
-7.80235e-05
0.026641
0.0783576
-2.91803e-05
0.0278374
0.0837248
-3.00575e-06
0.0286474
0.0875582
-8.36222e-10
0.0290544
0.0895506
3.00487e-06
0.0290544
0.0895506
2.9179e-05
0.0286474
0.0875582
7.80223e-05
0.0278374
0.0837248
0.000112619
0.026641
0.0783576
0.0251425
0.0719624
-3.53241e-09
-2.03476e-05
0.0305958
0.0897787
1.76297e-11
5.65487e-05
0.0319361
0.0970439
9.22739e-05
0.032977
0.103019
6.84395e-05
0.0336515
0.10723
-1.15068e-09
0.0339843
0.109402
-6.84406e-05
0.0339843
0.109402
-9.22758e-05
0.0336515
0.10723
-5.6551e-05
0.032977
0.103019
2.03446e-05
0.0319361
0.0970439
0.0305958
0.0897787
-4.7012e-09
7.00531e-05
0.0312954
0.0941096
-1.62209e-10
0.000177797
0.0322664
0.101276
0.000198223
0.0330046
0.107065
0.000128241
0.0334544
0.111101
-1.45348e-09
0.0336697
0.113168
-0.000128243
0.0336697
0.113168
-0.000198225
0.0334544
0.111101
-0.0001778
0.0330046
0.107065
-7.00572e-05
0.0322664
0.101276
0.0312954
0.0941096
-5.6121e-09
0.000149702
0.0290868
0.0909117
-3.43416e-10
0.000271064
0.0296945
0.0976916
0.000274128
0.0301466
0.103084
0.000169455
0.0303947
0.10681
-1.25763e-09
0.0305068
0.108709
-0.000169456
0.0305068
0.108709
-0.00027413
0.0303947
0.10681
-0.000271069
0.0301466
0.103084
-0.000149708
0.0296945
0.0976916
0.0290868
0.0909117
-6.5958e-09
0.000210736
0.0253539
0.0838029
-4.80683e-10
0.000333079
0.0256839
0.0901902
0.000321348
0.025917
0.0952056
0.000194082
0.0260192
0.0986479
-1.39288e-09
0.0260587
0.100397
-0.000194085
0.0260587
0.100397
-0.000321352
0.0260192
0.0986479
-0.000333085
0.025917
0.0952056
-0.000210743
0.0256839
0.0901902
0.0253539
0.083803
-7.02932e-09
0.000249443
0.0210155
0.0748508
-7.31903e-10
0.000369592
0.0211548
0.0809274
0.000347768
0.0212382
0.0856507
0.000207417
0.0212492
0.0888746
-2.12869e-09
0.0212455
0.0905079
-0.000207422
0.0212455
0.0905079
-0.000347773
0.0212492
0.0888746
-0.000369598
0.0212382
0.0856507
-0.000249449
0.0211548
0.0809274
0.0210155
0.0748508
-6.87877e-09
0.000271723
0.0166226
0.0651726
-7.71838e-10
0.000392624
0.0166301
0.0710238
0.000366124
0.0166192
0.0755347
0.000217232
0.0165842
0.0785988
-3.30451e-09
0.0165621
0.0801473
-0.000217238
0.0165621
0.0801473
-0.00036613
0.0165842
0.0785988
-0.00039263
0.0166192
0.0755347
-0.000271729
0.0166301
0.0710238
0.0166226
0.0651726
-6.75777e-09
0.000300418
0.0124643
0.0553231
-1.7095e-09
0.00043443
0.0123736
0.0610111
0.000402317
0.0123203
0.0653645
0.00023724
0.0122786
0.0683082
-4.95781e-09
0.0122584
0.0697924
-0.000237248
0.0122584
0.0697924
-0.000402325
0.0122786
0.0683082
-0.000434438
0.0123203
0.0653645
-0.000300424
0.0123736
0.0610111
0.0124643
0.0553231
-5.7704e-09
0.000433226
0.0455469
-1.6416e-09
0.00860845
0.00058143
0.0511084
0.00852335
0.000516129
0.0553376
0.00848127
0.000296137
0.0581852
0.00846481
-6.90756e-09
0.0596174
0.00845747
-0.00029615
0.0596174
0.00845747
-0.000516141
0.0581852
0.00846481
-0.00058144
0.0553376
0.00848127
-0.000433233
0.0511084
0.00852335
0.0455469
-4.23565e-09
0.00860844
4.74301e-05
0.00200242
0.0306805
1.79563e-10
5.31486e-05
0.00222452
0.0338187
4.37903e-05
0.00241728
0.0364907
2.43316e-05
0.00256282
0.0384235
1.1949e-10
0.00264057
0.0394366
-2.43325e-05
0.00264057
0.0394366
-4.37906e-05
0.00256282
0.0384235
-5.31495e-05
0.00241728
0.0364907
-4.74307e-05
0.00222452
0.0338187
0.00200242
0.0306805
-1.64582e-09
0.000135969
0.00593683
0.067892
-9.2645e-12
0.000176108
0.00643457
0.0741074
0.000152249
0.0068523
0.0793137
8.69031e-05
0.00715332
0.0830331
-5.83325e-11
0.00731119
0.0849669
-8.69051e-05
0.00731119
0.0849669
-0.000152249
0.00715332
0.0830331
-0.00017611
0.0068523
0.0793137
-0.000135971
0.00643457
0.0741074
0.00593684
0.067892
-1.95339e-09
0.000210633
0.00943927
0.0860657
-2.06957e-11
0.000286622
0.0100404
0.0933621
0.000252881
0.0105335
0.0993717
0.000145628
0.0108751
0.103616
-3.1005e-10
0.0110514
0.105807
-0.00014563
0.0110514
0.105807
-0.000252882
0.0108751
0.103616
-0.000286624
0.0105335
0.0993717
-0.000210635
0.0100404
0.0933621
0.00943928
0.0860657
-3.00056e-09
0.000273602
0.0114236
0.0918517
-5.18942e-11
0.000380946
0.0119704
0.0992389
0.000340506
0.0124136
0.105226
0.000197071
0.0127091
0.10941
-4.96296e-10
0.0128591
0.111557
-0.000197073
0.0128591
0.111557
-0.000340508
0.0127091
0.10941
-0.000380949
0.0124136
0.105226
-0.000273604
0.0119704
0.0992389
0.0114236
0.0918517
-3.55375e-09
0.000326411
0.0119131
0.0900957
2.37937e-10
0.000457661
0.0123242
0.0972065
0.000411712
0.0126578
0.102885
0.000238878
0.0128705
0.106821
-5.37979e-10
0.0129765
0.108831
-0.00023888
0.0129765
0.108831
-0.000411714
0.0128705
0.106821
-0.000457663
0.0126578
0.102885
-0.000326414
0.0123242
0.0972065
0.0119131
0.0900957
-4.39922e-09
0.00037062
0.0112673
0.0840782
9.64076e-11
0.000518718
0.0115241
0.0908422
0.000467766
0.011736
0.0961783
0.000271726
0.0118632
0.0998512
-8.80491e-10
0.0119249
0.10172
-0.000271728
0.0119249
0.10172
-0.000467769
0.0118632
0.0998512
-0.000518721
0.011736
0.0961783
-0.000370625
0.0115241
0.0908422
0.0112673
0.0840782
-5.34489e-09
0.000406183
0.0098993
0.0758127
-1.02475e-09
0.000565925
0.0100178
0.0822739
0.000510887
0.0101212
0.0873205
0.000297062
0.0101769
0.0907748
-1.49377e-09
0.0102025
0.0925273
-0.000297065
0.0102025
0.0925273
-0.000510891
0.0101769
0.0907748
-0.000565929
0.0101212
0.0873205
-0.000406188
0.0100178
0.0822739
0.00989931
0.0758127
-5.81142e-09
0.000432274
0.00816783
0.0664718
-1.04269e-09
0.000601331
0.00817703
0.0726956
0.000543791
0.00819617
0.0775173
0.000316621
0.00820111
0.0808017
-2.16398e-09
0.00820238
0.0824641
-0.000316626
0.00820238
0.0824641
-0.000543796
0.00820111
0.0808017
-0.000601335
0.00819617
0.0775173
-0.000432278
0.00817703
0.0726956
0.00816783
0.0664718
-5.95114e-09
0.00045137
0.00634853
0.056691
1.21059e-09
0.000630173
0.00627911
0.0627302
0.000570351
0.00624444
0.0673761
0.000332253
0.0062205
0.070527
-2.71858e-09
0.00620902
0.072118
-0.000332259
0.00620902
0.072118
-0.000570356
0.0062205
0.070527
-0.000630177
0.00624444
0.0673761
-0.000451375
0.00627911
0.0627302
0.00634853
0.056691
-4.49168e-09
0.000488914
0.0467954
-2.57635e-11
0.00461109
0.000664923
0.0526795
0.00453198
0.000595837
0.0571777
0.00447342
0.000344919
0.060216
0.00444062
-3.28982e-09
0.0617467
0.00442465
-0.000344924
0.0617467
0.00442465
-0.00059584
0.060216
0.00444063
-0.000664925
0.0571777
0.00447342
-0.000488915
0.0526795
0.00453198
0.0467954
-2.28377e-09
0.00461109
-1.57845e-05
0.00105155
0.0296448
-1.15577e-10
-2.15875e-05
0.00114509
0.0326794
-1.78476e-05
0.00121859
0.0352684
-9.76655e-06
0.00127039
0.037145
-3.70107e-10
0.00129695
0.0381299
9.76634e-06
0.00129695
0.0381299
1.78473e-05
0.0012704
0.037145
2.15872e-05
0.00121859
0.0352684
1.57838e-05
0.00114509
0.0326794
0.00105155
0.0296448
-1.35831e-09
-1.76565e-05
0.00270326
0.0662579
1.7605e-11
-2.22474e-05
0.00291822
0.0723388
-1.70761e-05
0.00308802
0.0774391
-8.61897e-06
0.00320622
0.0810888
-4.35044e-10
0.0032668
0.0829884
8.61836e-06
0.0032668
0.0829884
1.7075e-05
0.00320623
0.0810888
2.22468e-05
0.00308802
0.0774391
1.76548e-05
0.00291822
0.0723388
0.00270326
0.0662579
-2.30402e-09
-6.47701e-06
0.00421389
0.0845615
3.14969e-12
-2.84429e-06
0.00451123
0.0917654
1.41799e-06
0.00474722
0.0977082
2.64137e-06
0.00490784
0.101913
-3.78245e-10
0.00498982
0.104087
-2.64201e-06
0.00498982
0.104087
-1.41911e-06
0.00490784
0.101913
2.84293e-06
0.00474723
0.0977082
6.47477e-06
0.00451123
0.0917654
0.00421389
0.0845615
-3.2923e-09
9.61078e-06
0.00526357
0.0907924
-5.64587e-11
2.34197e-05
0.00558407
0.0981522
2.67065e-05
0.00583922
0.10413
1.76892e-05
0.00600888
0.108318
-5.24371e-10
0.00609458
0.11047
-1.76902e-05
0.00609458
0.11047
-2.67079e-05
0.00600888
0.108318
-2.34214e-05
0.00583922
0.10413
-9.61311e-06
0.00558407
0.0981522
0.00526357
0.0907924
-3.70114e-09
2.93249e-05
0.00575547
0.0895745
-3.41829e-10
5.16161e-05
0.00605258
0.0967157
5.28095e-05
0.00628852
0.102435
3.30231e-05
0.00644154
0.106408
-4.70483e-10
0.00651789
0.10844
-3.3024e-05
0.00651789
0.10844
-5.28107e-05
0.00644154
0.106408
-5.16174e-05
0.00628852
0.102435
-2.9327e-05
0.00605258
0.0967157
0.00575548
0.0895745
-4.04363e-09
4.89889e-05
0.00573267
0.084052
-2.3815e-10
7.83268e-05
0.00597904
0.0908864
7.69977e-05
0.00617367
0.0962945
4.70886e-05
0.00629654
0.100026
-5.44044e-10
0.00635702
0.101928
-4.70897e-05
0.00635702
0.101928
-7.69991e-05
0.00629654
0.100026
-7.83284e-05
0.00617367
0.0962945
-4.89914e-05
0.00597905
0.0908864
0.00573268
0.084052
-4.24764e-09
6.73564e-05
0.00530196
0.076176
2.83868e-10
0.000102358
0.00548641
0.0827315
9.85638e-05
0.0056311
0.0878669
5.95926e-05
0.00572033
0.09139
-8.58622e-10
0.00576378
0.0931802
-5.95944e-05
0.00576378
0.0931802
-9.85659e-05
0.00572033
0.09139
-0.00010236
0.0056311
0.0878669
-6.73597e-05
0.00548642
0.0827315
0.00530196
0.076176
-4.01488e-09
8.43659e-05
0.00458632
0.067103
-5.07495e-11
0.000125281
0.00470697
0.0734341
0.000119351
0.0048029
0.0783514
7.1681e-05
0.00486212
0.0817076
-1.54182e-09
0.00489107
0.0834085
-7.16841e-05
0.00489107
0.0834085
-0.000119354
0.00486212
0.0817076
-0.000125284
0.00480291
0.0783514
-8.43695e-05
0.00470698
0.0734341
0.00458633
0.067103
-3.16087e-09
0.000105579
0.00369904
0.0574728
-2.14302e-09
0.000155145
0.00376073
0.0636269
0.000145707
0.00381786
0.0683706
8.66823e-05
0.00385532
0.0715928
-2.42177e-09
0.00387433
0.0732214
-8.66869e-05
0.00387433
0.0732214
-0.000145712
0.00385532
0.0715928
-0.000155148
0.00381786
0.0683706
-0.000105583
0.00376073
0.0636269
0.00369904
0.0574728
-8.11274e-10
0.000157123
0.0476188
-2.43864e-09
0.00271856
0.000213288
0.0536285
0.00275559
0.000192353
0.0582285
0.00278808
0.000111701
0.0613383
0.00281359
-3.18761e-09
0.0629061
0.00282662
-0.000111707
0.0629061
0.00282662
-0.000192359
0.0613383
0.00281359
-0.000213293
0.0582285
0.00278808
-0.000157126
0.0536285
0.0027556
0.0476188
1.03535e-09
0.00271856
5.16874e-06
0.000219302
0.0294203
-9.81751e-11
5.17538e-06
0.000247813
0.0324316
4.07474e-06
0.000273386
0.0349961
2.19863e-06
0.000293257
0.0368536
-1.25502e-10
0.000304
0.0378281
-2.19879e-06
0.000304
0.0378281
-4.075e-06
0.000293257
0.0368536
-5.17588e-06
0.000273386
0.0349961
-5.16931e-06
0.000247813
0.0324316
0.000219302
0.0294203
-1.06534e-09
1.43872e-05
0.000747005
0.0657158
-5.74628e-11
1.76368e-05
0.000825199
0.0717582
1.48909e-05
0.000893237
0.0768219
8.4097e-06
0.000943649
0.0804449
-1.3362e-10
0.000970461
0.0823304
-8.40988e-06
0.000970461
0.0823304
-1.48918e-05
0.000943648
0.0804449
-1.76381e-05
0.000893237
0.0768219
-1.43886e-05
0.000825198
0.0717582
0.000747005
0.0657158
-1.33274e-09
2.41129e-05
0.00134992
0.0839345
-1.21619e-10
3.23696e-05
0.00146771
0.0911146
2.8495e-05
0.00156882
0.0970365
1.64344e-05
0.00164156
0.101227
-1.79981e-10
0.00167984
0.103394
-1.64348e-05
0.00167984
0.103394
-2.84961e-05
0.00164156
0.101227
-3.23714e-05
0.00156882
0.0970365
-2.41149e-05
0.00146771
0.0911146
0.00134992
0.0839345
-2.04043e-09
3.50845e-05
0.00184239
0.0902648
-1.47852e-10
4.9239e-05
0.00197791
0.0976279
4.44302e-05
0.00209362
0.10361
2.591e-05
0.00217506
0.107803
-2.64553e-10
0.00221751
0.109959
-2.59106e-05
0.00221751
0.109959
-4.44315e-05
0.00217506
0.107803
-4.9241e-05
0.00209362
0.10361
-3.50868e-05
0.00197791
0.0976279
0.00184239
0.0902648
-2.18072e-09
4.70674e-05
0.00214026
0.0892296
-4.89019e-11
6.7218e-05
0.00227172
0.0964017
6.13868e-05
0.00238394
0.10215
3.59886e-05
0.00246144
0.106147
-1.82605e-10
0.00250147
0.108193
-3.5989e-05
0.00250147
0.108193
-6.13877e-05
0.00246144
0.106147
-6.72198e-05
0.00238394
0.10215
-4.70697e-05
0.00227172
0.0964017
0.00214026
0.0892296
-2.31226e-09
5.96582e-05
0.00222648
0.0839061
-2.55297e-10
8.544e-05
0.00233814
0.0907942
7.84093e-05
0.00243377
0.0962517
4.60751e-05
0.00249868
0.100021
-2.84836e-10
0.00253192
0.101943
-4.60757e-05
0.00253192
0.101943
-7.84102e-05
0.00249868
0.100021
-8.54418e-05
0.00243377
0.0962517
-5.96603e-05
0.00233814
0.0907942
0.00222648
0.0839061
-2.54307e-09
7.22713e-05
0.00212568
0.0762046
-1.05823e-09
0.000103212
0.0022091
0.0828296
9.48833e-05
0.00228105
0.0880279
5.58139e-05
0.00232925
0.0915985
-5.02614e-10
0.00235377
0.0934141
-5.58149e-05
0.00235377
0.0934141
-9.48847e-05
0.00232925
0.0915985
-0.000103214
0.00228105
0.0880279
-7.22728e-05
0.0022091
0.0828296
0.00212568
0.0762046
-2.6243e-09
8.43327e-05
0.00188369
0.0672607
-1.56374e-09
0.000120245
0.00193662
0.0736707
0.000110641
0.00198342
0.0786586
6.51137e-05
0.00201479
0.0820676
-7.67294e-10
0.00203076
0.0837966
-6.51152e-05
0.00203076
0.0837966
-0.000110643
0.00201479
0.0820676
-0.000120247
0.00198342
0.0786586
-8.43332e-05
0.00193662
0.0736707
0.00188369
0.0672607
-2.77735e-09
9.62282e-05
0.0015538
0.0577064
-5.90067e-10
0.000137246
0.0015789
0.0639436
0.000126063
0.00160398
0.0687612
7.40916e-05
0.00162131
0.0720382
-9.61518e-10
0.00163031
0.073696
-7.40931e-05
0.00163031
0.073696
-0.000126064
0.00162132
0.0720382
-0.000137247
0.00160399
0.0687612
-9.62287e-05
0.0015789
0.0639436
0.0015538
0.0577064
-1.14962e-09
0.000112811
0.0478762
-5.92204e-11
0.00118357
0.000156286
0.0539694
0.0011945
0.000141884
0.0586431
0.00120374
8.28043e-05
0.0618072
0.00121152
-1.15077e-09
0.0634036
0.00121559
-8.2806e-05
0.0634036
0.00121559
-0.000141884
0.0618072
0.00121152
-0.000156285
0.0586431
0.00120375
-0.00011281
0.0539694
0.0011945
0.0478762
-4.21152e-10
0.00118357
-1.13892e-06
0.000132936
0.0292885
-8.39991e-11
-1.93672e-06
0.00014521
0.0322871
-1.69027e-06
0.000154637
0.0348412
-9.50303e-07
0.000161398
0.0366915
-7.56404e-12
0.0001649
0.0376622
9.50117e-07
0.0001649
0.0376622
1.69006e-06
0.000161397
0.0366915
1.93639e-06
0.000154638
0.0348412
1.13848e-06
0.000145211
0.0322871
0.000132937
0.0292885
-8.67504e-10
-6.39972e-07
0.000385179
0.0654642
-6.36468e-11
-1.03284e-06
0.000418232
0.0714856
-8.54265e-07
0.000444679
0.0765317
-4.08872e-07
0.000463319
0.0801425
1.5644e-11
0.000473031
0.0820219
4.08403e-07
0.000473031
0.0820219
8.53736e-07
0.000463319
0.0801425
1.03195e-06
0.000444679
0.0765317
6.38917e-07
0.000418233
0.0714856
0.00038518
0.0654642
-1.17767e-09
1.49401e-06
0.000657966
0.0836602
-1.05201e-10
2.45857e-06
0.000710606
0.0908213
2.55239e-06
0.000753286
0.0967278
1.65608e-06
0.000783039
0.100908
1.17792e-11
0.000798475
0.10307
-1.65641e-06
0.000798475
0.10307
-2.55286e-06
0.00078304
0.100908
-2.4595e-06
0.000753287
0.0967278
-1.49502e-06
0.000710607
0.0908213
0.000657967
0.0836602
-1.70587e-09
4.61171e-06
0.000889975
0.0900282
-1.33416e-10
7.5573e-06
0.000954794
0.0973807
7.49054e-06
0.0010077
0.103356
4.63411e-06
0.00104408
0.107545
-1.80199e-11
0.00106282
0.109699
-4.63437e-06
0.00106282
0.109699
-7.491e-06
0.00104408
0.107545
-7.55813e-06
0.0010077
0.103356
-4.61286e-06
0.000954795
0.0973807
0.000889976
0.0900282
-1.97764e-09
8.47563e-06
0.0010445
0.0890666
-1.97289e-10
1.35503e-05
0.0011124
0.0962391
1.32396e-05
0.001168
0.10199
8.08281e-06
0.00120568
0.105991
1.02788e-10
0.00122495
0.108038
-8.08281e-06
0.00122495
0.108038
-1.32398e-05
0.00120568
0.105991
-1.35509e-05
0.00116801
0.10199
-8.47664e-06
0.0011124
0.0962391
0.0010445
0.0890666
-2.16792e-09
1.286e-05
0.00110752
0.0838302
-8.11532e-11
1.99998e-05
0.00117057
0.0907289
1.93431e-05
0.00122227
0.0961981
1.17245e-05
0.0012568
0.0999777
-5.17863e-12
0.00127432
0.101906
-1.17247e-05
0.00127432
0.101906
-1.93437e-05
0.0012568
0.0999777
-2.00007e-05
0.00122227
0.0961981
-1.28612e-05
0.00117057
0.0907289
0.00110753
0.0838302
-2.23568e-09
1.75486e-05
0.00108191
0.0762126
1.42665e-10
2.66541e-05
0.0011345
0.0828566
2.55831e-05
0.00117768
0.0880736
1.54334e-05
0.00120625
0.0916592
-2.01263e-10
0.00122067
0.0934832
-1.5434e-05
0.00122067
0.0934832
-2.55844e-05
0.00120625
0.0916592
-2.66561e-05
0.00117768
0.0880736
-1.75507e-05
0.0011345
0.0828566
0.00108191
0.0762126
-2.08946e-09
2.25171e-05
0.00098129
0.0673388
7.33399e-11
3.37262e-05
0.00102016
0.0737738
3.21784e-05
0.0010526
0.0787852
1.93326e-05
0.00107418
0.0822125
-4.72591e-10
0.00108509
0.0839515
-1.93339e-05
0.00108509
0.0839515
-3.21805e-05
0.00107418
0.0822125
-3.3729e-05
0.0010526
0.0787852
-2.25199e-05
0.00102016
0.0737738
0.000981295
0.0673388
-2.079e-09
2.88407e-05
0.000824672
0.0578342
-8.01897e-10
4.26507e-05
0.000849092
0.0641008
4.01758e-05
0.000871201
0.0689451
2.39436e-05
0.000886355
0.0722423
-8.01517e-10
0.000894114
0.0739109
-2.39456e-05
0.000894115
0.0739109
-4.01786e-05
0.000886356
0.0722423
-4.26539e-05
0.0008712
0.0689451
-2.88441e-05
0.000849093
0.0641008
0.000824675
0.0578342
-1.16508e-09
4.15991e-05
0.0480295
-5.12893e-11
0.000629777
5.71633e-05
0.0541564
0.00064651
5.20273e-05
0.0588593
0.000660125
3.04198e-05
0.0620449
0.000670287
-1.0574e-09
0.0636526
0.000675508
-3.04222e-05
0.0636526
0.000675509
-5.20302e-05
0.0620449
0.000670289
-5.71673e-05
0.0588593
0.000660125
-4.16024e-05
0.0541564
0.00064651
0.0480295
8.85116e-10
0.000629776
4.28367e-07
4.32765e-05
0.0292448
-3.47895e-11
3.03678e-07
4.81799e-05
0.0322391
2.00216e-07
5.23676e-05
0.0347889
9.69659e-08
5.55439e-05
0.036636
-5.81107e-11
5.72436e-05
0.0376051
-9.70448e-08
5.72439e-05
0.0376051
-2.00384e-07
5.55442e-05
0.036636
-3.03928e-07
5.23679e-05
0.0347889
-4.28787e-07
4.81801e-05
0.0322391
4.32766e-05
0.0292448
-6.98222e-10
1.52345e-06
0.000139971
0.065366
1.08201e-10
1.77518e-06
0.00015401
0.0713795
1.4717e-06
0.000165935
0.0764185
8.28492e-07
0.000174678
0.080024
-1.12061e-10
0.000179311
0.0819006
-8.28648e-07
0.000179311
0.0819006
-1.47213e-06
0.000174678
0.080024
-1.7757e-06
0.000165935
0.0764185
-1.52441e-06
0.00015401
0.0713795
0.000139971
0.065366
-1.03686e-09
2.92816e-06
0.000254008
0.0835432
7.48767e-11
3.95753e-06
0.0002767
0.0906976
3.5068e-06
0.000295968
0.0965982
2.03761e-06
0.000309815
0.100775
-2.99961e-11
0.000317105
0.102934
-2.03768e-06
0.000317105
0.102934
-3.50717e-06
0.000309815
0.100775
-3.95809e-06
0.000295968
0.0965982
-2.92929e-06
0.000276701
0.0906976
0.000254009
0.0835432
-1.41289e-09
4.73287e-06
0.000355521
0.089922
2.11682e-11
6.79015e-06
0.000383854
0.0972715
6.21274e-06
0.000407966
0.103245
3.65833e-06
0.000425043
0.107433
-2.36681e-11
0.000433976
0.109586
-3.65842e-06
0.000433976
0.109586
-6.21307e-06
0.000425043
0.107433
-6.79069e-06
0.000407967
0.103245
-4.73385e-06
0.000383854
0.0972715
0.000355522
0.089922
-1.5523e-09
6.93236e-06
0.000426832
0.0889883
-4.58422e-11
1.01416e-05
0.000456887
0.0961628
9.40637e-06
0.000482554
0.101917
5.56996e-06
0.000500504
0.105919
1.50367e-10
0.000509835
0.107968
-5.5697e-06
0.000509835
0.107968
-9.40626e-06
0.000500505
0.105919
-1.01417e-05
0.000482556
0.101917
-6.93303e-06
0.000456888
0.0961628
0.000426833
0.0889883
-1.55199e-09
9.48274e-06
0.000460047
0.0837875
-2.37496e-10
1.38859e-05
0.000488195
0.0906932
1.29383e-05
0.000512316
0.0961693
7.67633e-06
0.000528999
0.0999545
1.59305e-10
0.000537619
0.101886
-7.67602e-06
0.00053762
0.101886
-1.29379e-05
0.000529
0.0999545
-1.38857e-05
0.000512318
0.0961693
-9.48315e-06
0.000488198
0.0906932
0.000460049
0.0837875
-1.436e-09
1.22949e-05
0.000454914
0.0762055
-5.81406e-10
1.79091e-05
0.00047845
0.0828607
1.66997e-05
0.000498694
0.0880884
9.9111e-06
0.000512589
0.0916824
7.49903e-11
0.000519739
0.093511
-9.91088e-06
0.000519739
0.093511
-1.66992e-05
0.00051259
0.0916824
-1.79088e-05
0.000498697
0.0880884
-1.22951e-05
0.000478453
0.0828607
0.000454917
0.0762055
-1.15194e-09
1.52842e-05
0.000416609
0.0673618
-7.12015e-10
2.21827e-05
0.000433955
0.0738114
2.06708e-05
0.000449075
0.0788364
1.22591e-05
0.000459469
0.082274
-1.28418e-10
0.000464815
0.0840187
-1.22592e-05
0.000464815
0.0840187
-2.06706e-05
0.00045947
0.082274
-2.21825e-05
0.000449078
0.0788364
-1.52843e-05
0.000433958
0.0738114
0.00041661
0.0673618
-1.01849e-09
1.86142e-05
0.000353652
0.0578785
2.43038e-11
2.69198e-05
0.000364501
0.064162
2.49697e-05
0.00037446
0.0690217
1.47609e-05
0.000381404
0.0723306
-5.16319e-10
0.000384999
0.0740055
-1.47617e-05
0.000384998
0.0740055
-2.49701e-05
0.000381405
0.0723306
-2.69199e-05
0.000374463
0.0690216
-1.86149e-05
0.000364506
0.064162
0.000353653
0.0578785
-4.30501e-10
2.34068e-05
0.0480844
7.56889e-10
0.000275307
3.26583e-05
0.0542297
0.000282036
2.98308e-05
0.058949
0.000287591
1.74808e-05
0.0621469
0.000291721
-9.90405e-10
0.0637613
0.000293861
-1.74827e-05
0.0637613
0.000293861
-2.98324e-05
0.0621469
0.000291722
-3.26597e-05
0.058949
0.000287594
-2.34074e-05
0.0542297
0.000282039
0.0480844
3.09549e-10
0.000275307
-4.71861e-08
2.19755e-05
0.0292229
-4.81247e-11
-1.50804e-07
2.41419e-05
0.0322151
-1.46411e-07
2.58689e-05
0.0347631
-8.55445e-08
2.71264e-05
0.0366089
-3.58965e-11
2.77887e-05
0.0375772
8.54351e-08
2.77886e-05
0.0375772
1.46269e-07
2.71262e-05
0.0366089
1.50569e-07
2.58686e-05
0.0347631
4.68805e-08
2.41417e-05
0.0322151
2.19757e-05
0.0292229
-5.15688e-10
1.97235e-07
6.75911e-05
0.0653202
3.84145e-11
1.93259e-07
7.37386e-05
0.0713299
1.632e-07
7.87399e-05
0.0763656
9.89517e-08
8.23288e-05
0.0799689
-1.25467e-10
8.42143e-05
0.0818443
-9.92596e-08
8.42141e-05
0.0818443
-1.63541e-07
8.23285e-05
0.0799689
-1.93793e-07
7.87394e-05
0.0763656
-1.97806e-07
7.37381e-05
0.0713299
6.75913e-05
0.0653202
-6.72684e-10
6.7076e-07
0.000119897
0.0834903
7.58937e-11
9.63239e-07
0.000130061
0.090641
8.95537e-07
0.000138436
0.0965386
5.39342e-07
0.000144366
0.100713
-1.05065e-10
0.000147469
0.102871
-5.39595e-07
0.000147469
0.102871
-8.95832e-07
0.000144366
0.100713
-9.63758e-07
0.000138435
0.0965386
-6.71409e-07
0.00013006
0.090641
0.000119897
0.0834903
-9.11672e-10
1.3315e-06
0.000167082
0.0898734
8.27511e-11
2.03429e-06
0.000180111
0.0972208
1.93364e-06
0.000190934
0.103192
1.16604e-06
0.00019851
0.107379
-1.62517e-10
0.000202452
0.109532
-1.16644e-06
0.000202452
0.109532
-1.93418e-06
0.00019851
0.107379
-2.03507e-06
0.000190934
0.103192
-1.33236e-06
0.000180111
0.0972208
0.000167082
0.0898734
-9.95156e-10
2.16576e-06
0.000201383
0.0889519
7.70756e-11
3.33494e-06
0.000215625
0.0961261
3.18877e-06
0.000227521
0.10188
1.92248e-06
0.000235756
0.105883
-1.11498e-10
0.000240016
0.107933
-1.92282e-06
0.000240016
0.107933
-3.18942e-06
0.000235756
0.105883
-3.33594e-06
0.000227521
0.10188
-2.16698e-06
0.000215624
0.0961261
0.000201384
0.0889519
-9.92235e-10
3.15458e-06
0.000218852
0.0837669
1.21459e-10
4.81149e-06
0.000232656
0.0906745
4.59858e-06
0.000244229
0.0961528
2.76871e-06
0.000252159
0.0999399
-1.84653e-10
0.000256239
0.101872
-2.76925e-06
0.000256239
0.101872
-4.59961e-06
0.00025216
0.0999399
-4.81304e-06
0.000244229
0.0961528
-3.15645e-06
0.000232656
0.0906745
0.000218852
0.0837669
-1.14631e-09
4.26964e-06
0.000218691
0.0762014
3.99836e-10
6.42815e-06
0.000230711
0.0828605
6.12851e-06
0.000240822
0.0880921
3.6832e-06
0.000247709
0.0916893
-2.27828e-10
0.000251237
0.0935197
-3.68385e-06
0.000251237
0.0935197
-6.12971e-06
0.00024771
0.0916893
-6.43001e-06
0.000240823
0.0880921
-4.27171e-06
0.00023071
0.0828605
0.00021869
0.0762014
-1.4386e-09
5.50815e-06
0.000202507
0.0673725
3.63976e-10
8.22002e-06
0.00021182
0.0738276
7.80956e-06
0.000219774
0.0788578
4.68099e-06
0.000225214
0.0822997
-1.06256e-10
0.000228001
0.0840466
-4.68129e-06
0.000228001
0.0840466
-7.81011e-06
0.000225216
0.0822997
-8.22087e-06
0.000219775
0.0788578
-5.50915e-06
0.00021182
0.0738276
0.000202507
0.0673725
-1.69152e-09
7.06139e-06
0.000173494
0.0579005
3.51896e-11
1.0421e-05
0.00017976
0.0641907
9.79888e-06
0.000185416
0.0690566
5.83518e-06
0.000189355
0.0723704
1.66654e-10
0.000191384
0.0740479
-5.8346e-06
0.000191385
0.0740479
-9.79775e-06
0.000189357
0.0723704
-1.04188e-05
0.000185416
0.0690566
-7.05933e-06
0.00017976
0.0641907
0.000173497
0.0579005
-8.56863e-10
9.80734e-06
0.0481129
-1.50837e-09
0.000135236
1.36049e-05
0.054266
0.000139648
1.2443e-05
0.0589924
0.000143213
7.30015e-06
0.0621956
0.00014584
1.25039e-10
0.0638127
0.000147196
-7.29911e-06
0.0638127
0.000147196
-1.24395e-05
0.0621956
0.00014584
-1.35999e-05
0.0589924
0.000143212
-9.80178e-06
0.054266
0.000139647
0.0481129
1.56537e-09
0.000135241
2.59213e-08
9.1141e-06
0.0292137
-8.42126e-11
-9.52516e-09
1.00715e-05
0.032205
-1.90366e-08
1.08634e-05
0.0347522
-1.3268e-08
1.14503e-05
0.0365974
-7.31666e-11
1.17621e-05
0.0375654
1.31385e-08
1.17621e-05
0.0375654
1.89442e-08
1.14502e-05
0.0365974
9.46996e-09
1.08633e-05
0.0347522
-2.59971e-08
1.00715e-05
0.032205
9.11445e-06
0.0292137
-3.56346e-10
1.82874e-07
2.87427e-05
0.0653004
-7.57902e-11
2.02887e-07
3.15093e-05
0.0713085
1.67167e-07
3.38115e-05
0.0763427
9.49431e-08
3.54827e-05
0.0799449
-1.7456e-10
3.63648e-05
0.0818198
-9.52361e-08
3.63648e-05
0.0818198
-1.67401e-07
3.54825e-05
0.0799449
-2.03061e-07
3.38114e-05
0.0763427
-1.83074e-07
3.15094e-05
0.0713085
2.87436e-05
0.0653004
-5.60644e-10
4.25032e-07
5.18681e-05
0.0834667
-9.58915e-11
5.86476e-07
5.64507e-05
0.0906159
5.27971e-07
6.02912e-05
0.0965122
3.1054e-07
6.3038e-05
0.100686
-1.38916e-10
6.44814e-05
0.102844
-3.10791e-07
6.44813e-05
0.102844
-5.28193e-07
6.30379e-05
0.100686
-5.86684e-07
6.02913e-05
0.0965122
-4.25326e-07
5.6451e-05
0.0906159
5.18695e-05
0.0834667
-6.94732e-10
7.54638e-07
7.30024e-05
0.0898515
-4.25185e-11
1.11059e-06
7.88993e-05
0.097198
1.03217e-06
8.38749e-05
0.103169
6.13839e-07
8.73937e-05
0.107355
-1.69564e-10
8.92337e-05
0.109508
-6.14183e-07
8.92337e-05
0.109508
-1.03258e-06
8.73937e-05
0.107355
-1.11114e-06
8.38752e-05
0.103169
-7.55423e-07
7.89e-05
0.097198
7.30041e-05
0.0898515
-8.32981e-10
1.17343e-06
8.86e-05
0.0889351
2.60568e-11
1.7547e-06
9.50788e-05
0.0961094
1.64987e-06
0.000100578
0.101864
9.85111e-07
0.000104429
0.105867
-1.13741e-10
0.000106433
0.107916
-9.85366e-07
0.000106433
0.107916