/*--------------------------------*- C++ -*----------------------------------*\
| =========                 |                                                 |
| \\      /  F ield         | OpenFOAM: The Open Source CFD Toolbox           |
|  \\    /   O peration     | Version:  2106                                  |
|   \\  /    A nd           | Website:  www.openfoam.com                      |
|    \\/     M anipulation  |                                                 |
\*---------------------------------------------------------------------------*/
FoamFile
{
    version     2.0;
    format      ascii;
    arch        "LSB;label=32;scalar=64";
    class       surfaceScalarField;
    location    "0.48";
    object      phi;
}
// * * * * * * * * * * * * * * * * * * * * * * * * * * * * * * * * * * * * * //

dimensions      [0 3 -1 0 0 0 0];

oriented        oriented;

internalField   nonuniform List<scalar> 
29100
(
0.00118698
0.151086
0.0814015
-3.98824e-10
0.00146076
0.155981
0.0894552
0.00125353
0.159411
0.0961831
0.000713887
0.161696
0.100999
-2.32294e-09
0.162842
0.103507
-0.000713891
0.162842
0.103507
-0.00125353
0.161696
0.100999
-0.00146077
0.159411
0.0961831
-0.00118699
0.155981
0.0894552
0.151086
0.0814015
-6.30489e-09
0.0023753
0.209082
0.156385
-7.51484e-10
0.00329938
0.21367
0.16999
0.00294267
0.21674
0.181114
0.00170226
0.218654
0.18898
-6.33279e-09
0.219592
0.193045
-0.00170227
0.219592
0.193045
-0.00294269
0.218654
0.18898
-0.00329939
0.21674
0.181114
-0.00237531
0.21367
0.16999
0.209082
0.156385
-1.58572e-08
0.00302821
0.220112
0.185782
-1.1597e-09
0.004283
0.223018
0.200894
0.00384441
0.224905
0.213058
0.00222654
0.22593
0.221584
-1.03942e-08
0.226405
0.225965
-0.00222656
0.226405
0.225965
-0.00384443
0.22593
0.221584
-0.00428302
0.224905
0.213058
-0.00302823
0.223018
0.200894
0.220112
0.185782
-2.38834e-08
0.00345592
0.206669
0.19291
-1.51272e-09
0.00482109
0.207887
0.208156
0.00431815
0.208618
0.220274
0.00249638
0.208831
0.228707
-1.45777e-08
0.208888
0.233023
-0.00249641
0.208888
0.233023
-0.00431818
0.208831
0.228707
-0.00482112
0.208618
0.220274
-0.00345595
0.207887
0.208156
0.206669
0.19291
-3.08074e-08
0.00368235
0.181508
0.187485
-1.82414e-09
0.00506709
0.181428
0.202358
0.00452593
0.181282
0.21406
0.00261299
0.180919
0.222155
-1.92225e-08
0.180686
0.226284
-0.00261302
0.180686
0.226284
-0.00452597
0.180919
0.222155
-0.00506713
0.181282
0.21406
-0.00368239
0.181428
0.202358
0.181508
0.187485
-3.71135e-08
0.00376304
0.151958
0.174876
-2.14173e-09
0.00512653
0.151021
0.189221
0.00456922
0.150306
0.200416
0.00263638
0.149607
0.208119
-2.46452e-08
0.149211
0.212038
-0.00263643
0.149211
0.212038
-0.00456927
0.149607
0.208119
-0.00512658
0.150306
0.200416
-0.00376309
0.151021
0.189221
0.151958
0.174876
-4.30516e-08
0.00376599
0.122128
0.158236
-2.51742e-09
0.00509397
0.12071
0.172054
0.00453299
0.119684
0.182764
0.0026152
0.118843
0.190099
-3.11285e-08
0.118389
0.193822
-0.00261526
0.118389
0.193822
-0.00453305
0.118843
0.190099
-0.00509402
0.119684
0.182764
-0.00376604
0.12071
0.172054
0.122128
0.158236
-4.88378e-08
0.00372607
0.0942425
0.139415
-3.02246e-09
0.00503214
0.0926092
0.15276
0.00447759
0.091472
0.163047
0.00258434
0.0906374
0.17006
-3.87379e-08
0.0902058
0.17361
-0.00258442
0.0902058
0.17361
-0.00447766
0.0906374
0.17006
-0.0050322
0.091472
0.163047
-0.00372613
0.0926092
0.15276
0.0942425
0.139415
-5.44958e-08
0.00368844
0.0694147
0.119477
-3.71058e-09
0.00500598
0.0677341
0.132416
0.00445573
0.0666608
0.142341
0.00257092
0.0659502
0.149077
-4.71195e-08
0.0655983
0.15248
-0.00257101
0.0655983
0.15248
-0.00445582
0.0659502
0.149077
-0.00500606
0.0666608
0.142341
-0.00368851
0.0677341
0.132416
0.0694147
0.119477
-5.96987e-08
0.00390403
0.0990344
-5.19466e-09
0.0478974
0.00518921
0.111629
0.0465724
0.00456221
0.121239
0.0457277
0.00261235
0.127733
0.0452153
-5.5443e-08
0.131006
0.0449638
-0.00261245
0.131006
0.0449638
-0.00456231
0.127733
0.0452152
-0.0051893
0.121239
0.0457276
-0.00390411
0.111629
0.0465724
0.0990344
-6.39711e-08
0.0478973
-0.000241759
0.0366189
0.0450243
-5.06038e-10
-0.000243817
0.0397993
0.049658
-0.000171472
0.042487
0.0536238
-8.54223e-05
0.0444087
0.0565039
-3.81879e-09
0.0454028
0.0580183
8.54146e-05
0.0454028
0.0580183
0.000171464
0.0444087
0.0565039
0.000243808
0.042487
0.0536238
0.00024175
0.0397993
0.049658
0.0366189
0.0450243
-9.45559e-09
6.26825e-05
0.0807778
0.112164
-1.0376e-09
0.000250805
0.0865637
0.123037
0.000300561
0.0913752
0.132176
0.000201551
0.0947457
0.138742
-1.16786e-08
0.0964768
0.142173
-0.000201574
0.0964768
0.142173
-0.000300584
0.0947457
0.138742
-0.00025083
0.0913752
0.132176
-6.27075e-05
0.0865637
0.123037
0.0807778
0.112164
-2.54466e-08
0.000611086
0.112146
0.153803
-1.65396e-09
0.00102821
0.118828
0.168212
0.0010064
0.124312
0.180143
0.000615176
0.128078
0.188643
-1.96364e-08
0.129997
0.19306
-0.000615216
0.129997
0.19306
-0.00100644
0.128078
0.188643
-0.00102825
0.124312
0.180143
-0.000611126
0.118828
0.168212
0.112146
0.153803
-3.9925e-08
0.00122746
0.12844
0.175389
-2.27292e-09
0.00186766
0.134778
0.191566
0.00175739
0.139913
0.204783
0.00104958
0.143364
0.214128
-2.80677e-08
0.145106
0.218963
-0.00104963
0.145106
0.218963
-0.00175745
0.143364
0.214128
-0.00186771
0.139913
0.204783
-0.00122751
0.134778
0.191566
0.12844
0.175389
-5.26528e-08
0.00182843
0.131452
0.182645
-2.96211e-09
0.00266265
0.136763
0.19954
0.00246035
0.140995
0.21318
0.0014532
0.143772
0.222754
-3.71963e-08
0.145155
0.227688
-0.00145328
0.145155
0.227688
-0.00246042
0.143772
0.222754
-0.00266272
0.140995
0.21318
-0.00182849
0.136763
0.19954
0.131452
0.182645
-6.38969e-08
0.00237007
0.124262
0.179696
-3.74884e-09
0.00336683
0.128283
0.196705
0.00307842
0.13141
0.210289
0.00180685
0.133401
0.219761
-4.72428e-08
0.134376
0.224623
-0.00180695
0.134376
0.224623
-0.00307851
0.133401
0.219761
-0.00336691
0.131411
0.210289
-0.00237015
0.128283
0.196705
0.124262
0.179696
-7.37638e-08
0.00282957
0.110126
0.169542
-4.77165e-09
0.00396436
0.112862
0.186339
0.00360367
0.11491
0.199625
0.00210789
0.116164
0.208832
-5.82391e-08
0.116766
0.21354
-0.00210801
0.116766
0.21354
-0.00360378
0.116164
0.208832
-0.00396446
0.11491
0.199625
-0.00282966
0.112862
0.186339
0.110126
0.169542
-8.2273e-08
0.00320151
0.0919747
0.154365
-6.11507e-09
0.00446555
0.0935654
0.170793
0.00405054
0.0946943
0.183678
0.00236558
0.0953551
0.192553
-6.97887e-08
0.095666
0.197076
-0.00236572
0.095666
0.197076
-0.00405067
0.0953551
0.192553
-0.00446567
0.0946943
0.183678
-0.00320161
0.0935655
0.170793
0.0919747
0.154365
-8.92658e-08
0.00352205
0.0722029
0.135727
-7.98773e-09
0.00492051
0.072848
0.151735
0.00445774
0.073306
0.164192
0.00259931
0.0735686
0.172722
-8.08596e-08
0.0736917
0.177053
-0.00259947
0.0736917
0.177053
-0.00445788
0.0735687
0.172722
-0.00492064
0.073306
0.164192
-0.00352215
0.072848
0.151735
0.0722029
0.135727
-9.36396e-08
0.00394112
0.114743
-1.03061e-08
0.052553
0.00545617
0.130346
0.0526157
0.00490375
0.142381
0.0527162
0.00284326
0.150573
0.0527895
-8.96209e-08
0.154719
0.0528226
-0.00284343
0.154719
0.0528226
-0.00490391
0.150573
0.0527895
-0.00545631
0.142381
0.0527162
-0.00394123
0.130346
0.0526157
0.114743
-9.51733e-08
0.052553
3.96768e-05
0.00994778
0.0350369
-5.28329e-10
3.56441e-05
0.0109767
0.0386854
2.99185e-05
0.0118502
0.0417793
1.65477e-05
0.0124987
0.0440186
-3.97375e-09
0.0128403
0.0451945
-1.65558e-05
0.0128403
0.0451945
-2.99268e-05
0.0124987
0.0440186
-3.56527e-05
0.0118502
0.0417793
-3.9686e-05
0.0109767
0.0386854
0.00994778
0.0350369
-9.75175e-09
0.000281043
0.0301289
0.0917015
-1.18606e-09
0.000381278
0.0328186
0.101095
0.00034046
0.0350697
0.108997
0.000198498
0.036693
0.11469
-1.23754e-08
0.0375409
0.117671
-0.000198523
0.0375409
0.117671
-0.000340486
0.036693
0.11469
-0.000381304
0.0350697
0.108997
-0.000281069
0.0328186
0.101095
0.0301289
0.0917015
-2.69326e-08
0.000598204
0.0508446
0.132489
-1.9874e-09
0.000848139
0.0548044
0.145977
0.000767919
0.0580739
0.157219
0.000449939
0.0603786
0.165275
-2.13933e-08
0.0615722
0.169479
-0.000449982
0.0615722
0.169479
-0.000767963
0.0603786
0.165275
-0.000848182
0.0580739
0.157219
-0.000598247
0.0548044
0.145977
0.0508447
0.132489
-4.23664e-08
0.000961367
0.0664319
0.158841
-2.74461e-09
0.00137871
0.0709435
0.175009
0.0012586
0.0746227
0.188355
0.000738916
0.0771649
0.197861
-3.08658e-08
0.0784693
0.202805
-0.000738978
0.0784693
0.202805
-0.00125866
0.0771649
0.197861
-0.00137877
0.0746227
0.188355
-0.000961424
0.0709435
0.175009
0.0664319
0.158841
-5.59537e-08
0.00134545
0.0749377
0.172793
-3.58512e-09
0.00192584
0.0793464
0.190557
0.00176249
0.0828931
0.205073
0.00103502
0.0852959
0.215351
-4.09438e-08
0.0865161
0.220676
-0.0010351
0.0865161
0.220676
-0.00176257
0.0852959
0.215351
-0.00192592
0.0828932
0.205073
-0.00134552
0.0793464
0.190557
0.0749377
0.172793
-6.77502e-08
0.00173023
0.0764169
0.176486
-4.57358e-09
0.00245978
0.0802644
0.195057
0.00225012
0.0833054
0.210087
0.00132063
0.0853229
0.220664
-5.16659e-08
0.0863359
0.226124
-0.00132074
0.0863359
0.226124
-0.00225022
0.0853229
0.220664
-0.00245987
0.0833054
0.210087
-0.00173032
0.0802644
0.195057
0.076417
0.176486
-7.7632e-08
0.00209277
0.0719689
0.171898
-5.86191e-09
0.00295685
0.0750033
0.190736
0.00270212
0.0773447
0.205841
0.001585
0.0788645
0.216407
-6.28474e-08
0.0796186
0.221843
-0.00158513
0.0796186
0.221843
-0.00270223
0.0788645
0.216407
-0.00295696
0.0773447
0.205841
-0.00209287
0.0750033
0.190736
0.0719689
0.171898
-8.54244e-08
0.00241734
0.0631573
0.160759
-7.57073e-09
0.00340763
0.0652918
0.179514
0.00311255
0.066896
0.194422
0.00182493
0.0679177
0.204788
-7.38171e-08
0.0684198
0.2101
-0.00182508
0.0684198
0.2101
-0.00311268
0.0679177
0.204788
-0.00340775
0.0668961
0.194422
-0.00241745
0.0652918
0.179514
0.0631573
0.160759
-9.08902e-08
0.00271666
0.0516407
0.144527
-9.86674e-09
0.00382869
0.0529171
0.162998
0.0034919
0.053871
0.177554
0.00204456
0.054476
0.187611
-8.3216e-08
0.054773
0.192745
-0.00204472
0.054773
0.192745
-0.00349205
0.054476
0.187611
-0.00382882
0.053871
0.177554
-0.00271677
0.0529171
0.162998
0.0516408
0.144527
-9.29245e-08
0.00305141
0.124405
-1.29361e-08
0.0389271
0.00426599
0.142517
0.0395311
0.00386818
0.156634
0.0400156
0.00225552
0.166321
0.0403407
-8.90477e-08
0.171247
0.040501
-0.00225569
0.171247
0.040501
-0.00386833
0.166321
0.0403407
-0.00426612
0.156634
0.0400156
-0.00305151
0.142517
0.0395311
0.124405
-9.14004e-08
0.0389271
-3.17671e-05
0.0040295
0.0310391
-4.65912e-10
-4.53695e-05
0.00443696
0.034262
-3.66791e-05
0.00478291
0.0369877
-2.02513e-05
0.00504007
0.0389621
-3.46645e-09
0.00517478
0.0399995
2.02442e-05
0.00517478
0.0399995
3.66719e-05
0.00504007
0.0389621
4.53616e-05
0.00478291
0.0369877
3.17587e-05
0.00443696
0.034262
0.00402951
0.0310391
-8.522e-09
8.64633e-06
0.0124826
0.0832398
-1.0584e-09
1.51544e-05
0.0136759
0.0918497
1.952e-05
0.0146875
0.099088
1.41501e-05
0.0154245
0.104311
-1.10573e-08
0.015811
0.107049
-1.41724e-05
0.015811
0.107049
-1.95427e-05
0.0154245
0.104311
-1.5177e-05
0.0146875
0.099088
-8.66821e-06
0.0136759
0.0918497
0.0124826
0.0832398
-2.3592e-08
0.000119483
0.022177
0.122675
-1.84334e-09
0.00018112
0.024152
0.135439
0.000173935
0.0258147
0.146099
0.000105988
0.0270078
0.15376
-1.92657e-08
0.0276305
0.157766
-0.000106026
0.0276305
0.157766
-0.000173974
0.0270078
0.15376
-0.000181159
0.0258147
0.146099
-0.000119522
0.024152
0.135439
0.022177
0.122675
-3.77941e-08
0.00028625
0.0306894
0.150042
-2.6806e-09
0.000426566
0.0331952
0.165826
0.000401997
0.0352841
0.17891
0.000240991
0.0367605
0.18827
-2.79315e-08
0.0375263
0.19315
-0.000241047
0.0375263
0.19315
-0.000402052
0.0367605
0.18827
-0.00042662
0.0352841
0.17891
-0.000286301
0.0331952
0.165826
0.0306894
0.150042
-5.0156e-08
0.000493197
0.0365325
0.166457
-3.64374e-09
0.000724428
0.0392319
0.184289
0.000677336
0.0414527
0.198951
0.000403385
0.0429982
0.209387
-3.70218e-08
0.0437936
0.214812
-0.000403458
0.0437936
0.214812
-0.000677407
0.0429982
0.209387
-0.000724496
0.0414528
0.198951
-0.00049326
0.0392319
0.184289
0.0365325
0.166457
-6.0684e-08
0.000724395
0.0390838
0.17321
-4.76319e-09
0.00105087
0.0416628
0.1923
0.000977206
0.0437478
0.207865
0.000579706
0.0451747
0.218885
-4.64516e-08
0.0459027
0.224595
-0.000579798
0.0459027
0.224595
-0.000977293
0.0451747
0.218885
-0.00105095
0.0437478
0.207865
-0.000724469
0.0416628
0.1923
0.0390838
0.17321
-6.92335e-08
0.000962823
0.0383817
0.171637
-6.16871e-09
0.00138459
0.0406041
0.191373
0.00128275
0.0423608
0.20733
0.00075905
0.0435423
0.218563
-5.59306e-08
0.0441395
0.224365
-0.00075916
0.0441395
0.224365
-0.00128285
0.0435424
0.218563
-0.00138469
0.0423608
0.20733
-0.000962905
0.0406041
0.191373
0.0383818
0.171637
-7.55737e-08
0.00119581
0.0349128
0.163032
-7.99444e-09
0.00171274
0.0366356
0.182966
0.00158276
0.0379649
0.198948
0.000934761
0.0388449
0.210133
-6.47733e-08
0.0392859
0.215888
-0.000934887
0.0392859
0.215888
-0.00158288
0.0388449
0.210133
-0.00171284
0.0379649
0.198948
-0.0011959
0.0366356
0.182966
0.0349129
0.163032
-7.94162e-08
0.00142769
0.0294164
0.148596
-1.02755e-08
0.0020383
0.0305938
0.168429
0.0018765
0.0314883
0.184192
0.00110514
0.0320752
0.195152
-7.1759e-08
0.0323679
0.200768
-0.00110528
0.0323679
0.200768
-0.00187662
0.0320752
0.195152
-0.00203841
0.0314883
0.184192
-0.00142778
0.0305938
0.168429
0.0294164
0.148596
-7.98189e-08
0.00167529
0.129416
-1.2882e-08
0.0227309
0.00237369
0.149007
0.0234054
0.00217236
0.164388
0.0239362
0.0012738
0.175002
0.0242933
-7.51693e-08
0.180417
0.0244715
-0.00127394
0.180417
0.0244715
-0.00217249
0.175001
0.0242933
-0.0023738
0.164388
0.0239362
-0.00167537
0.149007
0.0234054
0.129416
-7.67377e-08
0.0227309
2.22711e-06
0.00129047
0.0297464
-4.03049e-10
-1.42521e-07
0.00143329
0.0328311
1.54383e-07
0.00155774
0.0354297
1.31551e-07
0.00165279
0.0373094
-2.83434e-09
0.00170349
0.0382962
-1.37293e-07
0.00170349
0.0382962
-1.60353e-07
0.00165279
0.0373094
1.36205e-07
0.00155775
0.0354297
-2.23364e-06
0.00143329
0.0328311
0.00129047
0.0297464
-7.00971e-09
3.01303e-05
0.00463349
0.0798667
-1.00009e-09
3.86656e-05
0.00511407
0.0881604
3.5431e-05
0.00552743
0.0951216
2.09576e-05
0.00583454
0.100144
-9.10568e-09
0.00599728
0.102776
-2.0976e-05
0.00599728
0.102776
-3.54497e-05
0.00583454
0.100144
-3.86846e-05
0.00552743
0.0951216
-3.01495e-05
0.00511407
0.0881604
0.0046335
0.0798667
-1.9658e-08
8.34006e-05
0.00893401
0.118291
-1.7168e-09
0.000117794
0.00980424
0.130714
0.000108481
0.0105458
0.14109
6.43069e-05
0.0110867
0.148552
-1.5846e-08
0.0113717
0.152455
-6.43386e-05
0.0113717
0.152455
-0.000108513
0.0110867
0.148552
-0.000117826
0.0105458
0.14109
-8.34316e-05
0.00980424
0.130714
0.00893402
0.118291
-3.11389e-08
0.000161785
0.013112
0.145702
-2.48656e-09
0.000234421
0.0143015
0.161256
0.000217423
0.0153052
0.174168
0.000129019
0.0160262
0.183419
-2.29417e-08
0.0164037
0.188247
-0.000129064
0.0164037
0.188247
-0.000217468
0.0160262
0.183419
-0.000234465
0.0153052
0.174168
-0.000161826
0.0143015
0.161256
0.013112
0.145702
-4.12048e-08
0.000262336
0.0163614
0.162945
-3.36468e-09
0.000381791
0.0177288
0.180742
0.000354968
0.0188688
0.195414
0.00021063
0.0196757
0.205882
-3.02931e-08
0.0200951
0.211331
-0.00021069
0.0200951
0.211331
-0.000355026
0.0196758
0.205882
-0.000381846
0.0188688
0.195414
-0.000262388
0.0177289
0.180742
0.0163615
0.162945
-4.97743e-08
0.00037978
0.0182064
0.170986
-4.38802e-09
0.000551096
0.0195905
0.190267
0.000512294
0.0207269
0.206046
0.00030378
0.0215192
0.21725
-3.77724e-08
0.0219276
0.223066
-0.000303854
0.0219276
0.223066
-0.000512365
0.0215192
0.21725
-0.000551163
0.0207269
0.206046
-0.00037984
0.0195906
0.190267
0.0182064
0.170986
-5.6652e-08
0.000506853
0.0184869
0.17085
-5.6475e-09
0.000732426
0.0197445
0.190993
0.000680148
0.0207574
0.207351
0.000402945
0.0214526
0.218907
-4.50944e-08
0.0218079
0.224888
-0.000403033
0.0218079
0.224888
-0.000680231
0.0214526
0.218907
-0.000732502
0.0207574
0.207351
-0.000506919
0.0197445
0.190993
0.0184869
0.17085
-6.16305e-08
0.000637054
0.0173038
0.163578
-7.21737e-09
0.000918047
0.0183309
0.184098
0.000851171
0.0191413
0.200631
0.000503596
0.019689
0.212244
-5.16916e-08
0.0199666
0.218233
-0.000503697
0.0199666
0.218233
-0.000851265
0.0196891
0.212244
-0.00091813
0.0191413
0.200631
-0.000637124
0.018331
0.184098
0.0173038
0.163578
-6.44716e-08
0.000770462
0.0149439
0.150185
-9.07133e-09
0.00110544
0.0156895
0.170735
0.00102101
0.0162665
0.187151
0.000602527
0.0166517
0.198608
-5.66333e-08
0.0168455
0.204492
-0.000602638
0.0168455
0.204492
-0.00102111
0.0166517
0.198608
-0.00110553
0.0162666
0.187151
-0.000770533
0.0156895
0.170735
0.0149439
0.150185
-6.45097e-08
0.000903393
0.131644
-1.11479e-08
0.0118119
0.00128829
0.152043
0.0122688
0.00118519
0.16813
0.0126276
0.000697269
0.17927
0.0128709
-5.86706e-08
0.184966
0.0129933
-0.000697382
0.184966
0.0129933
-0.00118529
0.17927
0.0128709
-0.00128838
0.16813
0.0126276
-0.000903462
0.152043
0.0122689
0.131644
-6.17524e-08
0.0118119
-5.5058e-06
0.000554209
0.0291977
-3.22114e-10
-8.22909e-06
0.000609597
0.0322242
-6.58277e-06
0.000656523
0.0347715
-3.64045e-06
0.000692151
0.0366143
-2.24805e-09
0.000710896
0.0375816
3.63595e-06
0.000710896
0.0375816
6.57803e-06
0.000692152
0.0366143
8.22412e-06
0.000656523
0.0347715
5.50083e-06
0.000609598
0.0322242
0.00055421
0.0291977
-5.55364e-09
-1.44898e-06
0.00192708
0.0784952
-8.4523e-10
-2.81102e-06
0.00212256
0.0866488
-1.52477e-06
0.00228927
0.0934875
-4.15457e-07
0.00241325
0.0984216
-7.17821e-09
0.00247891
0.101008
4.00805e-07
0.00247891
0.101008
1.5101e-06
0.00241325
0.0984216
2.79543e-06
0.00228927
0.0934875
1.43174e-06
0.00212256
0.0866488
0.00192708
0.0784952
-1.5655e-08
1.58725e-05
0.00374314
0.116459
-1.42546e-09
2.3351e-05
0.00411539
0.128714
2.28975e-05
0.00443287
0.138947
1.4169e-05
0.00466579
0.146308
-1.23896e-08
0.00478886
0.15016
-1.41938e-05
0.00478886
0.15016
-2.29224e-05
0.00466579
0.146308
-2.33756e-05
0.00443287
0.138947
-1.58961e-05
0.0041154
0.128714
0.00374315
0.116459
-2.41546e-08
4.68801e-05
0.00560213
0.143796
-2.07467e-09
6.96366e-05
0.00613659
0.159212
6.62325e-05
0.00658987
0.172014
3.9975e-05
0.0069183
0.181192
-1.78394e-08
0.00709104
0.185985
-4.00105e-05
0.00709104
0.185985
-6.62676e-05
0.00691831
0.181192
-6.96706e-05
0.00658987
0.172014
-4.69123e-05
0.0061366
0.159212
0.00560214
0.143796
-3.18766e-08
9.04165e-05
0.00715155
0.161306
-2.81311e-09
0.000133738
0.00779507
0.17904
0.000126197
0.00833559
0.193676
7.56245e-05
0.00872225
0.204129
-2.34238e-08
0.00892436
0.209574
-7.56709e-05
0.00892436
0.209574
-0.000126242
0.00872226
0.204129
-0.000133781
0.0083356
0.193676
-9.04563e-05
0.00779509
0.17904
0.00715156
0.161305
-3.85606e-08
0.000144406
0.00814193
0.169851
-3.65183e-09
0.000212166
0.00882232
0.189172
0.000199334
0.00938601
0.205008
0.000119027
0.00978375
0.216269
-2.9018e-08
0.00999016
0.22212
-0.000119084
0.00999016
0.22212
-0.000199389
0.00978376
0.216269
-0.000212217
0.00938603
0.205008
-0.000144452
0.00882233
0.189172
0.00814194
0.169851
-4.39633e-08
0.00020576
0.00844765
0.170338
-4.64627e-09
0.000300548
0.00909197
0.190629
0.000281502
0.00961648
0.20714
0.000167686
0.0099812
0.218824
-3.43955e-08
0.010169
0.224876
-0.000167754
0.010169
0.224876
-0.000281566
0.00998121
0.218824
-0.000300606
0.00961649
0.20714
-0.000205811
0.00909198
0.190629
0.00844766
0.170338
-4.79243e-08
0.000271614
0.0080634
0.163691
-5.85027e-09
0.000395196
0.00861181
0.184455
0.000369032
0.00904964
0.201224
0.000219303
0.00934958
0.213026
-3.91553e-08
0.00950266
0.219119
-0.000219379
0.00950266
0.219119
-0.000369104
0.00934959
0.213025
-0.00039526
0.00904966
0.201224
-0.000271668
0.00861182
0.184455
0.00806341
0.163691
-5.02624e-08
0.000342206
0.00708343
0.150823
-7.22438e-09
0.000494687
0.00750002
0.171695
0.000459444
0.00782589
0.18841
0.000272065
0.00804596
0.200099
-4.26782e-08
0.00815738
0.206109
-0.000272148
0.00815739
0.206109
-0.000459521
0.00804596
0.200099
-0.000494754
0.0078259
0.18841
-0.000342261
0.00750003
0.171695
0.00708344
0.150823
-5.05601e-08
0.000413829
0.132635
-8.63811e-09
0.00567882
0.000594457
0.153415
0.00594762
0.00054984
0.16984
0.00615973
0.000324541
0.181237
0.00630442
-4.41568e-08
0.187071
0.00637757
-0.000324626
0.187071
0.00637757
-0.000549918
0.181237
0.00630443
-0.000594524
0.16984
0.00615974
-0.000413883
0.153415
0.00594763
0.132635
-4.8816e-08
0.00567883
-7.5546e-07
0.000173111
0.0290254
-2.35772e-10
-1.52488e-06
0.00019184
0.0320331
-1.1318e-06
0.000208203
0.0345629
-6.12977e-07
0.000221072
0.0363927
-1.71706e-09
0.000227945
0.0373531
6.09509e-07
0.000227945
0.0373531
1.12826e-06
0.000221073
0.0363927
1.52115e-06
0.000208203
0.0345629
7.51596e-07
0.00019184
0.0320331
0.000173112
0.0290254
-3.89616e-09
1.65744e-06
0.000680168
0.0779865
-6.28099e-10
1.64809e-06
0.000753321
0.0860873
1.75918e-06
0.000816836
0.0928788
1.14838e-06
0.000864939
0.0977783
-5.41549e-09
0.000890629
0.100346
-1.15924e-06
0.000890629
0.100346
-1.77013e-06
0.00086494
0.0977783
-1.65895e-06
0.000816837
0.0928788
-1.66807e-06
0.000753323
0.0860873
0.00068017
0.0779865
-1.09772e-08
9.04085e-06
0.00140153
0.115729
-1.09278e-09
1.25462e-05
0.00154899
0.127915
1.18492e-05
0.0016763
0.138088
7.15934e-06
0.00177099
0.145407
-9.34045e-09
0.00182137
0.149236
-7.178e-06
0.00182138
0.149236
-1.18678e-05
0.00177099
0.145407
-1.25646e-05
0.00167631
0.138088
-9.05854e-06
0.00154899
0.127915
0.00140154
0.115729
-1.76002e-08
2.20133e-05
0.00218078
0.142995
-1.59583e-09
3.19123e-05
0.00240191
0.158349
2.99811e-05
0.00259148
0.171101
1.79611e-05
0.00273054
0.180245
-1.33922e-08
0.00280416
0.18502
-1.79877e-05
0.00280416
0.18502
-3.00073e-05
0.00273054
0.180245
-3.19377e-05
0.00259149
0.171101
-2.20373e-05
0.00240192
0.158349
0.00218079
0.142995
-2.35188e-08
4.06411e-05
0.00286879
0.160577
-2.15482e-09
5.95178e-05
0.00314513
0.178278
5.58861e-05
0.00337973
0.192891
3.33935e-05
0.00354959
0.203332
-1.74943e-08
0.00363897
0.208772
-3.34281e-05
0.00363897
0.208772
-5.59198e-05
0.00354959
0.203332
-5.95499e-05
0.00337974
0.192891
-4.06707e-05
0.00314514
0.178278
0.0028688
0.160577
-2.86334e-08
6.43985e-05
0.00334832
0.169307
-2.77898e-09
9.43584e-05
0.00365029
0.188637
8.85301e-05
0.00390332
0.20449
5.28197e-05
0.00408405
0.21577
-2.15539e-08
0.00417848
0.221633
-5.28622e-05
0.00417849
0.221633
-8.85709e-05
0.00408406
0.21577
-9.43965e-05
0.00390332
0.20449
-6.44329e-05
0.00365029
0.188637
0.00334833
0.169307
-3.28324e-08
9.21807e-05
0.00354868
0.170046
-3.49627e-09
0.000134778
0.00384334
0.190393
0.000126295
0.00408621
0.206966
7.52484e-05
0.0042572
0.218702
-2.54165e-08
0.00434582
0.224784
-7.52984e-05
0.00434582
0.224784
-0.000126342
0.0042572
0.218702
-0.000134821
0.00408621
0.206966
-9.22189e-05
0.00384335
0.190393
0.00354869
0.170046
-3.60206e-08
0.000122797
0.0034503
0.163666
-4.32666e-09
0.000179093
0.00370843
0.184533
0.00016744
0.00391717
0.201404
9.9572e-05
0.00406187
0.213289
-2.8828e-08
0.00413619
0.219428
-9.96285e-05
0.00413619
0.219428
-0.000167493
0.00406188
0.213289
-0.000179141
0.00391718
0.201404
-0.000122838
0.00370843
0.184533
0.00345031
0.163666
-3.80811e-08
0.000156028
0.00308067
0.151037
-5.22598e-09
0.000226055
0.00328281
0.17205
0.000210273
0.00344244
0.188901
0.000124641
0.00355124
0.200695
-3.14128e-08
0.00360661
0.206763
-0.000124703
0.00360661
0.206763
-0.00021033
0.00355125
0.200695
-0.000226105
0.00344245
0.188901
-0.00015607
0.00328282
0.17205
0.00308068
0.151037
-3.87861e-08
0.000188053
0.133019
-6.12745e-09
0.0025085
0.000271442
0.153972
0.00264252
0.00025195
0.170554
0.00274854
0.00014904
0.18207
0.00282121
-3.26961e-08
0.187968
0.0028581
-0.000149103
0.187968
0.0028581
-0.000252009
0.18207
0.00282121
-0.000271493
0.170554
0.00274854
-0.000188095
0.153972
0.00264253
0.133019
-3.8142e-08
0.0025085
-1.32115e-06
6.92528e-05
0.0289574
-1.63788e-10
-1.9079e-06
7.59939e-05
0.0319577
-1.54726e-06
8.17762e-05
0.0344808
-8.58628e-07
8.62799e-05
0.0363057
-1.2833e-09
8.86584e-05
0.0372636
8.56053e-07
8.86585e-05
0.0372636
1.54467e-06
8.62801e-05
0.0363057
1.90524e-06
8.17765e-05
0.0344808
1.31842e-06
7.59943e-05
0.0319577
6.9253e-05
0.0289574
-2.65933e-09
-1.68015e-06
0.000260768
0.0777967
-4.50634e-10
-2.53515e-06
0.000287974
0.0858762
-2.08084e-06
0.000311544
0.0926486
-1.12771e-06
0.000329427
0.0975342
-4.00632e-09
0.000338963
0.100095
1.1197e-06
0.000338963
0.100095
2.07287e-06
0.000329427
0.0975342
2.52714e-06
0.000311545
0.0926486
1.67214e-06
0.000287976
0.0858762
0.000260769
0.0777967
-7.59672e-09
4.58115e-07
0.000537451
0.115451
-7.67751e-10
4.81152e-07
0.000594522
0.127608
6.74629e-07
0.000643781
0.137756
5.22773e-07
0.000680594
0.145056
-6.87119e-09
0.000700232
0.148875
-5.36451e-07
0.000700232
0.148875
-6.88113e-07
0.000680596
0.145056
-4.93786e-07
0.000643782
0.137756
-4.69186e-07
0.000594524
0.127608
0.000537454
0.115451
-1.20587e-08
4.93574e-06
0.000846876
0.142681
-1.14048e-09
7.25598e-06
0.000935385
0.158006
7.03706e-06
0.00101147
0.170733
4.31457e-06
0.00106764
0.17986
-9.80987e-09
0.00109748
0.184627
-4.33405e-06
0.00109748
0.184627
-7.05612e-06
0.00106764
0.17986
-7.27439e-06
0.00101148
0.170733
-4.95309e-06
0.000935389
0.158006
0.00084688
0.142681
-1.66051e-08
1.20862e-05
0.00113178
0.16028
-1.53693e-09
1.78742e-05
0.00124588
0.177962
1.70052e-05
0.00134316
0.192561
1.02563e-05
0.00141409
0.202992
-1.27595e-08
0.00145157
0.208429
-1.02816e-05
0.00145157
0.208429
-1.70297e-05
0.0014141
0.202992
-1.78975e-05
0.00134316
0.192561
-1.21077e-05
0.00124589
0.177962
0.00113178
0.16028
-2.04905e-08
2.16568e-05
0.00134246
0.169075
-1.96434e-09
3.19831e-05
0.00147078
0.188401
3.02529e-05
0.00157887
0.204257
1.81498e-05
0.00165666
0.21554
-1.56544e-08
0.00169747
0.221405
-1.81807e-05
0.00169748
0.221405
-3.02826e-05
0.00165666
0.21554
-3.20108e-05
0.00157887
0.204256
-2.16819e-05
0.00147079
0.188401
0.00134247
0.169074
-2.37114e-08
3.32514e-05
0.00144486
0.16991
-2.43801e-09
4.89706e-05
0.0015735
0.190275
4.61767e-05
0.00168016
0.206867
2.76232e-05
0.00175584
0.218621
-1.83952e-08
0.00179524
0.224714
-2.76594e-05
0.00179524
0.224714
-4.62111e-05
0.00175584
0.218621
-4.90022e-05
0.00168016
0.206867
-3.32794e-05
0.0015735
0.190275
0.00144486
0.16991
-2.62649e-08
4.64398e-05
0.00142468
0.16364
-2.97227e-09
6.81874e-05
0.00154035
0.184545
6.40785e-05
0.00163451
0.201454
3.82246e-05
0.00170027
0.21337
-2.08309e-08
0.00173419
0.219528
-3.82655e-05
0.00173419
0.219527
-6.4117e-05
0.00170027
0.21337
-6.82222e-05
0.00163451
0.201454
-4.64701e-05
0.00154035
0.184545
0.00142469
0.16364
-2.80831e-08
6.12156e-05
0.00128772
0.151112
-3.53533e-09
8.91536e-05
0.00138077
0.172182
8.3255e-05
0.00145471
0.189087
4.94684e-05
0.00150544
0.200924
-2.27517e-08
0.00153134
0.207016
-4.95128e-05
0.00153134
0.207016
-8.32966e-05
0.00150544
0.200924
-8.91907e-05
0.00145471
0.189087
-6.12471e-05
0.00138077
0.172182
0.00128772
0.151112
-2.90447e-08
7.58097e-05
0.133172
-4.07555e-09
0.00105902
0.000109997
0.154196
0.0011225
0.000102499
0.170843
0.00117294
6.0773e-05
0.18241
0.00120765
-2.39069e-08
0.188335
0.00122532
-6.08197e-05
0.188335
0.00122532
-0.000102542
0.182409
0.00120765
-0.000110035
0.170843
0.00117294
-7.58416e-05
0.154196
0.0011225
0.133172
-2.91592e-08
0.00105902
-3.53971e-07
1.67481e-05
0.028941
-1.07216e-10
-5.53332e-07
1.85743e-05
0.0319394
-4.49847e-07
2.02606e-05
0.0344604
-2.51754e-07
2.16567e-05
0.0362839
-9.36265e-10
2.24111e-05
0.0372409
2.49883e-07
2.24111e-05
0.0372409
4.47988e-07
2.16568e-05
0.0362838
5.51459e-07
2.02608e-05
0.0344604
3.52103e-07
1.85745e-05
0.0319394
1.67482e-05
0.028941
-1.77399e-09
-4.91756e-07
7.70868e-05
0.0777368
-3.04209e-10
-8.45512e-07
8.58841e-05
0.0858093
-7.2249e-07
9.37573e-05
0.092575
-4.03084e-07
9.99e-05
0.0974557
-2.89748e-09
0.000103217
0.100013
3.97312e-07
0.000103217
0.100013
7.16807e-07
9.99003e-05
0.0974557
8.39877e-07
9.37581e-05
0.0925749
4.86228e-07
8.58851e-05
0.0858093
7.70874e-05
0.0777368
-5.1437e-09
2.20209e-07
0.000172928
0.115355
-5.20593e-10
1.2125e-07
0.000192778
0.127502
1.42197e-07
0.000210263
0.137639
1.10621e-07
0.000223576
0.144932
-4.94303e-09
0.000230745
0.148748
-1.20427e-07
0.000230746
0.148748
-1.51826e-07
0.000223577
0.144932
-1.3011e-07
0.000210264
0.137639
-2.28114e-07
0.00019278
0.127502
0.00017293
0.115355
-8.26088e-09
1.84067e-06
0.000286534
0.142565
-7.68361e-10
2.55064e-06
0.000318791
0.157879
2.41331e-06
0.000346945
0.170597
1.46118e-06
0.000368043
0.179717
-7.03076e-09
0.000379341
0.18448
-1.47512e-06
0.000379341
0.18448
-2.42687e-06
0.000368044
0.179717
-2.56364e-06
0.000346947
0.170597
-1.85274e-06
0.000318793
0.157879
0.000286537
0.142565
-1.14162e-08
4.53617e-06
0.000396695
0.160165
-1.02858e-09
6.56694e-06
0.000439768
0.177839
6.18661e-06
0.000476966
0.192431
3.71165e-06
0.000504452
0.202858
-9.10993e-09
0.000519077
0.208293
-3.72968e-06
0.000519077
0.208293
-6.20404e-06
0.000504454
0.202858
-6.5834e-06
0.000476969
0.192431
-4.55124e-06
0.000439771
0.177839
0.000396698
0.160165
-1.41966e-08
8.26334e-06
0.000483459
0.16898
-1.30314e-09
1.21024e-05
0.000533307
0.188304
1.14001e-05
0.000575794
0.204158
6.8233e-06
0.000606747
0.215442
-1.11399e-08
0.000623095
0.221308
-6.84528e-06
0.000623096
0.221308
-1.14212e-05
0.000606748
0.215442
-1.2122e-05
0.000575797
0.204158
-8.28106e-06
0.000533311
0.188304
0.000483463
0.168979
-1.65773e-08
1.28994e-05
0.000531799
0.169849
-1.59824e-09
1.89524e-05
0.000583014
0.190219
1.78452e-05
0.000625962
0.206818
1.06655e-05
0.000656781
0.218578
-1.30617e-08
0.00067292
0.224675
-1.06912e-05
0.000672921
0.224675
-1.78697e-05
0.000656782
0.218578
-1.89749e-05
0.000625965
0.206818
-1.29194e-05
0.000583018
0.190219
0.000531803
0.169849
-1.85509e-08
1.82845e-05
0.000533939
0.16362
-1.91811e-09
2.68493e-05
0.00058104
0.184538
2.52266e-05
0.000619776
0.201462
1.50457e-05
0.000647095
0.21339
-1.47917e-08
0.000661255
0.219554
-1.50748e-05
0.000661256
0.219554
-2.52541e-05
0.000647096
0.21339
-2.68743e-05
0.000619778
0.201462
-1.83062e-05
0.000581044
0.184538
0.000533943
0.163619
-2.00774e-08
2.43542e-05
0.000490136
0.151132
-2.24161e-09
3.54966e-05