/*--------------------------------*- C++ -*----------------------------------*\
| =========                 |                                                 |
| \\      /  F ield         | OpenFOAM: The Open Source CFD Toolbox           |
|  \\    /   O peration     | Version:  2106                                  |
|   \\  /    A nd           | Website:  www.openfoam.com                      |
|    \\/     M anipulation  |                                                 |
\*---------------------------------------------------------------------------*/
FoamFile
{
    version     2.0;
    format      ascii;
    arch        "LSB;label=32;scalar=64";
    class       volVectorField;
    location    "0.86";
    object      U;
}
// * * * * * * * * * * * * * * * * * * * * * * * * * * * * * * * * * * * * * //

dimensions      [0 1 -1 0 0 0 0];

internalField   nonuniform List<vector> 
10000
(
(0.0625631 0.0737205 0.345096)
(0.0533588 0.0838407 0.359575)
(0.0398492 0.092992 0.370938)
(0.024721 0.0993744 0.378787)
(0.00837783 0.102674 0.382775)
(-0.00837784 0.102674 0.382775)
(-0.024721 0.0993744 0.378787)
(-0.0398492 0.092992 0.370938)
(-0.0533588 0.0838407 0.359575)
(-0.0625631 0.0737205 0.345096)
(0.172065 0.204136 0.727826)
(0.145245 0.23138 0.747474)
(0.108434 0.255341 0.762113)
(0.0670888 0.271929 0.77201)
(0.0227094 0.280484 0.776958)
(-0.0227094 0.280484 0.776958)
(-0.0670888 0.271929 0.77201)
(-0.108434 0.255341 0.762113)
(-0.145245 0.23138 0.747474)
(-0.172065 0.204136 0.727826)
(0.222645 0.264371 0.923731)
(0.185838 0.296083 0.939557)
(0.137854 0.323774 0.95062)
(0.0848692 0.342719 0.957923)
(0.0286575 0.352426 0.961504)
(-0.0286575 0.352426 0.961504)
(-0.0848693 0.342719 0.957923)
(-0.137854 0.323774 0.95062)
(-0.185838 0.296083 0.939557)
(-0.222646 0.264371 0.923731)
(0.237675 0.281762 1.02284)
(0.196439 0.311646 1.03335)
(0.144819 0.337794 1.04001)
(0.0887443 0.355482 1.04427)
(0.0298981 0.364486 1.04631)
(-0.0298981 0.364486 1.04631)
(-0.0887443 0.355481 1.04427)
(-0.144819 0.337794 1.04001)
(-0.196439 0.311646 1.03335)
(-0.237675 0.281762 1.02284)
(0.235747 0.27898 1.07119)
(0.193246 0.304986 1.07715)
(0.141716 0.327878 1.08027)
(0.0864948 0.34323 1.08215)
(0.0290841 0.350998 1.083)
(-0.0290842 0.350998 1.083)
(-0.0864949 0.34323 1.08215)
(-0.141716 0.327878 1.08027)
(-0.193247 0.304986 1.07715)
(-0.235747 0.27898 1.07119)
(0.22475 0.265482 1.09227)
(0.182839 0.286896 1.09485)
(0.133449 0.305899 1.0955)
(0.0811489 0.318569 1.09575)
(0.0272386 0.324943 1.0958)
(-0.0272387 0.324943 1.0958)
(-0.081149 0.318569 1.09575)
(-0.133449 0.305899 1.0955)
(-0.182839 0.286896 1.09485)
(-0.22475 0.265482 1.09227)
(0.208424 0.245568 1.09888)
(0.168274 0.262152 1.09916)
(0.122268 0.277013 1.09825)
(0.0740898 0.286904 1.09749)
(0.0248275 0.291858 1.09705)
(-0.0248276 0.291858 1.09705)
(-0.0740898 0.286904 1.09749)
(-0.122268 0.277013 1.09825)
(-0.168274 0.262152 1.09916)
(-0.208424 0.245568 1.09888)
(0.189097 0.221962 1.09819)
(0.151495 0.233758 1.09702)
(0.109613 0.244467 1.09522)
(0.0662049 0.251628 1.09391)
(0.0221502 0.255216 1.09322)
(-0.0221503 0.255216 1.09322)
(-0.066205 0.251628 1.09391)
(-0.109613 0.244467 1.09522)
(-0.151495 0.233758 1.09702)
(-0.189097 0.221962 1.09819)
(0.168303 0.196451 1.09421)
(0.133874 0.203645 1.09215)
(0.0964707 0.210326 1.08994)
(0.0580852 0.214925 1.08839)
(0.019404 0.217248 1.0876)
(-0.0194041 0.217248 1.0876)
(-0.0580853 0.214925 1.08839)
(-0.0964708 0.210326 1.08994)
(-0.133874 0.203645 1.09215)
(-0.168303 0.196451 1.09421)
(0.147202 0.170687 1.08917)
(0.11661 0.171789 1.08664)
(0.0834485 0.175071 1.08429)
(0.0500593 0.177463 1.0827)
(0.0166932 0.178692 1.0819)
(-0.0166933 0.178692 1.0819)
(-0.0500594 0.177463 1.0827)
(-0.0834486 0.175071 1.08429)
(-0.11661 0.171789 1.08664)
(-0.147202 0.170687 1.08917)
(0.0111956 0.014301 0.26651)
(0.00940589 0.0175918 0.278771)
(0.00710226 0.0202353 0.288811)
(0.00449595 0.0220476 0.2958)
(0.00153829 0.0229918 0.299378)
(-0.0015383 0.0229918 0.299378)
(-0.00449597 0.0220476 0.2958)
(-0.00710226 0.0202353 0.288811)
(-0.0094059 0.0175918 0.278771)
(-0.0111956 0.014301 0.26651)
(0.0544218 0.0658476 0.629478)
(0.0467319 0.0792235 0.651422)
(0.0357653 0.090685 0.669019)
(0.0226111 0.0988064 0.681122)
(0.00773771 0.103069 0.687265)
(-0.00773775 0.103069 0.687265)
(-0.0226111 0.0988064 0.681122)
(-0.0357653 0.090685 0.669019)
(-0.0467319 0.0792235 0.651422)
(-0.0544218 0.0658476 0.629478)
(0.0977989 0.116814 0.876426)
(0.0834407 0.138155 0.900247)
(0.0635238 0.156471 0.918931)
(0.0399198 0.169397 0.931625)
(0.0136204 0.176148 0.938018)
(-0.0136205 0.176148 0.938018)
(-0.0399199 0.169397 0.931625)
(-0.0635239 0.156471 0.918931)
(-0.0834408 0.138155 0.900247)
(-0.0977989 0.116814 0.876426)
(0.133895 0.158751 1.04418)
(0.113268 0.18489 1.06618)
(0.0856781 0.207216 1.08302)
(0.0535372 0.22286 1.09432)
(0.0182148 0.230985 1.09996)
(-0.0182149 0.230985 1.09996)
(-0.0535372 0.22286 1.09432)
(-0.0856781 0.207216 1.08302)
(-0.113268 0.18489 1.06618)
(-0.133895 0.158751 1.04418)
(0.159746 0.188325 1.15723)
(0.133983 0.216203 1.17585)
(0.100712 0.239856 1.18972)
(0.0626081 0.256311 1.19891)
(0.0212464 0.26481 1.20346)
(-0.0212465 0.26481 1.20346)
(-0.0626082 0.256311 1.19891)
(-0.100713 0.239856 1.18972)
(-0.133983 0.216203 1.17585)
(-0.159746 0.188325 1.15723)
(0.175395 0.205705 1.23229)
(0.145866 0.232837 1.24711)
(0.108985 0.255657 1.25783)
(0.0674278 0.271425 1.26483)
(0.0228276 0.279527 1.26827)
(-0.0228277 0.279527 1.26827)
(-0.067428 0.271425 1.26483)
(-0.108985 0.255656 1.25783)
(-0.145866 0.232837 1.24711)
(-0.175395 0.205705 1.23229)
(0.1819 0.212235 1.28118)
(0.149985 0.236719 1.29242)
(0.111408 0.25707 1.30027)
(0.068616 0.271049 1.30531)
(0.0231778 0.278198 1.30776)
(-0.023178 0.278198 1.30776)
(-0.0686162 0.271049 1.30531)
(-0.111408 0.25707 1.30027)
(-0.149985 0.236719 1.29241)
(-0.1819 0.212235 1.28118)
(0.1806 0.209542 1.31224)
(0.147626 0.229998 1.32039)
(0.109034 0.246725 1.32587)
(0.0668683 0.258161 1.32931)
(0.0225395 0.26399 1.33097)
(-0.0225397 0.26399 1.33097)
(-0.0668684 0.258161 1.32931)
(-0.109034 0.246725 1.32587)
(-0.147626 0.229998 1.32039)
(-0.1806 0.209542 1.31224)
(0.172952 0.199299 1.33131)
(0.140204 0.214793 1.33698)
(0.102967 0.227104 1.34062)
(0.0628777 0.235538 1.34285)
(0.0211495 0.239834 1.34389)
(-0.0211497 0.239834 1.34389)
(-0.0628779 0.235538 1.34285)
(-0.102967 0.227104 1.34062)
(-0.140204 0.214793 1.33698)
(-0.172952 0.199299 1.33131)
(0.160522 0.184314 1.34251)
(0.129264 0.192252 1.34634)
(0.0941554 0.199797 1.34862)
(0.0572076 0.205001 1.34994)
(0.0191951 0.207649 1.35054)
(-0.0191953 0.207649 1.35054)
(-0.0572078 0.205001 1.34994)
(-0.0941556 0.199797 1.34862)
(-0.129264 0.192252 1.34634)
(-0.160522 0.184314 1.34251)
(0.00112226 0.00125333 0.157612)
(0.00113338 0.0016005 0.16591)
(0.000883492 0.00200873 0.172839)
(0.000591399 0.00231111 0.177744)
(0.000206079 0.00247867 0.180283)
(-0.000206091 0.00247867 0.180283)
(-0.000591411 0.00231111 0.177744)
(-0.000883502 0.00200873 0.172839)
(-0.00113339 0.00160049 0.16591)
(-0.00112226 0.00125332 0.157612)
(0.0180228 0.0209134 0.441566)
(0.016208 0.0255143 0.461765)
(0.0126851 0.0298439 0.478354)
(0.00814715 0.0330417 0.489997)
(0.00280735 0.0347596 0.49599)
(-0.00280738 0.0347596 0.49599)
(-0.00814718 0.0330417 0.489997)
(-0.0126852 0.0298439 0.478354)
(-0.016208 0.0255143 0.461765)
(-0.0180229 0.0209134 0.441566)
(0.0410847 0.0478219 0.685109)
(0.0362864 0.0574546 0.712683)
(0.0281908 0.0662409 0.734966)
(0.017958 0.0726656 0.750477)
(0.0061658 0.0760871 0.75842)
(-0.00616587 0.0760871 0.75842)
(-0.017958 0.0726656 0.750477)
(-0.0281909 0.0662409 0.734966)
(-0.0362865 0.0574546 0.712683)
(-0.0410848 0.0478219 0.685109)
(0.0659692 0.0768482 0.887712)
(0.0575017 0.0910338 0.91889)
(0.0443435 0.103726 0.943668)
(0.0280668 0.112909 0.96077)
(0.00960748 0.117764 0.969484)
(-0.00960758 0.117764 0.969484)
(-0.0280669 0.112909 0.96077)
(-0.0443435 0.103726 0.943668)
(-0.0575018 0.0910338 0.91889)
(-0.0659693 0.0768482 0.887712)
(0.0882032 0.102632 1.05281)
(0.0760101 0.119902 1.08481)
(0.0582013 0.135127 1.10981)
(0.0366312 0.146037 1.12691)
(0.0125051 0.151767 1.13559)
(-0.0125052 0.151767 1.13559)
(-0.0366314 0.146036 1.12691)
(-0.0582014 0.135127 1.1098)
(-0.0760102 0.119902 1.08481)
(-0.0882033 0.102632 1.05281)
(0.105543 0.122491 1.18529)
(0.09 0.141095 1.21623)
(0.0684424 0.157272 1.23999)
(0.0428529 0.168761 1.25612)
(0.014592 0.17476 1.26425)
(-0.0145921 0.17476 1.26425)
(-0.0428531 0.168761 1.25612)
(-0.0684426 0.157272 1.23999)
(-0.0900001 0.141095 1.21623)
(-0.105543 0.122491 1.18529)
(0.117137 0.135457 1.29029)
(0.0988732 0.153708 1.31902)
(0.0746863 0.169341 1.34072)
(0.0465297 0.180355 1.35534)
(0.0158053 0.186075 1.36268)
(-0.0158055 0.186075 1.36268)
(-0.0465299 0.180355 1.35534)
(-0.0746865 0.169341 1.34072)
(-0.0988734 0.153708 1.31902)
(-0.117137 0.135457 1.29029)
(0.122859 0.141417 1.37259)
(0.102661 0.157837 1.39851)
(0.0770338 0.171654 1.41781)
(0.0477591 0.181316 1.43071)
(0.0161839 0.186309 1.43715)
(-0.0161841 0.186309 1.43715)
(-0.0477593 0.181316 1.43071)
(-0.077034 0.171654 1.41781)
(-0.102662 0.157837 1.39851)
(-0.122859 0.141417 1.37259)
(0.123108 0.140808 1.43628)
(0.101856 0.154217 1.45929)
(0.0758992 0.165171 1.47616)
(0.0468137 0.172798 1.48732)
(0.0158229 0.176724 1.49286)
(-0.0158232 0.176724 1.49286)
(-0.0468139 0.172798 1.48732)
(-0.0758994 0.165171 1.47616)
(-0.101856 0.154217 1.45929)
(-0.123108 0.140808 1.43628)
(0.1187 0.135445 1.48471)
(0.0972506 0.143506 1.5053)
(0.0717539 0.150796 1.51983)
(0.0439823 0.155846 1.52931)
(0.0148207 0.158431 1.53398)
(-0.0148209 0.158431 1.53398)
(-0.0439826 0.155846 1.52931)
(-0.0717541 0.150796 1.51983)
(-0.0972508 0.143506 1.5053)
(-0.118701 0.135445 1.48471)
(0.00071354 0.000937072 0.137862)
(0.000557772 0.00117495 0.144667)
(0.000382016 0.00134367 0.150208)
(0.000236931 0.00144354 0.154098)
(7.93433e-05 0.00149353 0.156104)
(-7.93545e-05 0.00149353 0.156104)
(-0.000236941 0.00144354 0.154098)
(-0.000382026 0.00134367 0.150208)
(-0.000557781 0.00117495 0.144667)
(-0.000713547 0.000937067 0.137862)
(0.00704515 0.00842373 0.395312)
(0.00611801 0.010383 0.413374)
(0.00470484 0.0120785 0.427995)
(0.00300176 0.0132957 0.438229)
(0.00103092 0.0139434 0.443496)
(-0.00103096 0.0139434 0.443496)
(-0.0030018 0.0132957 0.438229)
(-0.00470487 0.0120785 0.427995)
(-0.00611804 0.010383 0.413374)
(-0.00704517 0.00842371 0.395312)
(0.0172799 0.0204026 0.628399)
(0.0150748 0.0248417 0.655064)
(0.0116672 0.0287378 0.676484)
(0.00743318 0.0315666 0.691414)
(0.00255273 0.0330714 0.699077)
(-0.0025528 0.0330714 0.699077)
(-0.00743324 0.0315666 0.691414)
(-0.0116672 0.0287378 0.676484)
(-0.0150748 0.0248417 0.655064)
(-0.0172799 0.0204026 0.628399)
(0.0296501 0.0348103 0.835211)
(0.0257823 0.0418778 0.867799)
(0.0199285 0.04808 0.893732)
(0.0126562 0.0525786 0.911718)
(0.00434034 0.0549645 0.920921)
(-0.00434044 0.0549645 0.920921)
(-0.0126563 0.0525786 0.911718)
(-0.0199285 0.04808 0.893731)
(-0.0257824 0.0418778 0.867799)
(-0.0296502 0.0348103 0.83521)
(0.042104 0.0492111 1.0157)
(0.0363861 0.0584557 1.0518)
(0.0280119 0.0665226 1.08022)
(0.0177195 0.0723446 1.09982)
(0.00606523 0.0754193 1.10982)
(-0.00606536 0.0754193 1.10982)
(-0.0177196 0.0723446 1.09982)
(-0.028012 0.0665226 1.08022)
(-0.0363862 0.0584557 1.0518)
(-0.0421041 0.049211 1.0157)
(0.0531492 0.0618458 1.17104)
(0.0455831 0.0724688 1.20861)
(0.0349074 0.0816521 1.23787)
(0.021985 0.0882361 1.25794)
(0.00750913 0.0916964 1.26815)
(-0.0075093 0.0916964 1.26815)
(-0.0219851 0.0882361 1.25794)
(-0.0349076 0.0816521 1.23787)
(-0.0455833 0.0724688 1.20861)
(-0.0531493 0.0618458 1.17104)
(0.0617988 0.0715729 1.30302)
(0.0525498 0.0826198 1.34047)
(0.0400019 0.0920484 1.3693)
(0.0250769 0.0987582 1.38898)
(0.00854555 0.102267 1.39895)
(-0.00854574 0.102267 1.39895)
(-0.025077 0.0987582 1.38898)
(-0.0400021 0.0920484 1.3693)
(-0.05255 0.0826197 1.34047)
(-0.061799 0.0715729 1.30302)
(0.0674602 0.077709 1.41368)
(0.0568378 0.0882044 1.44982)
(0.0429881 0.0970158 1.47736)
(0.0268185 0.103235 1.49604)
(0.00911688 0.106471 1.50547)
(-0.0091171 0.106471 1.50547)
(-0.0268187 0.103235 1.49604)
(-0.0429883 0.0970158 1.47736)
(-0.0568379 0.0882044 1.44982)
(-0.0674603 0.077709 1.41368)
(0.0699367 0.0799895 1.50498)
(0.0583626 0.0890529 1.53915)
(0.0438277 0.0964487 1.56487)
(0.0271946 0.101632 1.58218)
(0.00921957 0.104313 1.59086)
(-0.00921981 0.104313 1.59086)
(-0.0271949 0.101632 1.58218)
(-0.0438279 0.0964487 1.56487)
(-0.0583628 0.0890529 1.53915)
(-0.0699369 0.0799895 1.50498)
(0.0694086 0.0792036 1.57861)
(0.057314 0.085228 1.61107)
(0.0426021 0.0904639 1.63461)
(0.0262583 0.0940983 1.65022)
(0.0088726 0.0959639 1.65799)
(-0.00887285 0.0959639 1.65799)
(-0.0262585 0.0940983 1.65022)
(-0.0426023 0.0904639 1.63461)
(-0.0573142 0.085228 1.61107)
(-0.0694088 0.0792036 1.57861)
(0.000130585 0.000142824 0.126928)
(0.000120969 0.000187194 0.133268)
(8.93875e-05 0.000232652 0.138421)
(6.11518e-05 0.000264515 0.142044)
(2.11211e-05 0.00028258 0.143915)
(-2.11307e-05 0.00028258 0.143915)
(-6.1161e-05 0.000264513 0.142044)
(-8.93959e-05 0.000232649 0.138421)
(-0.000120977 0.00018719 0.133267)
(-0.000130591 0.000142819 0.126928)
(0.00251426 0.0029082 0.368094)
(0.00224891 0.00360533 0.385337)
(0.00176154 0.00424739 0.399306)
(0.00113853 0.00472512 0.409109)
(0.000393132 0.00498445 0.41416)
(-0.000393165 0.00498444 0.41416)
(-0.00113856 0.00472512 0.409109)
(-0.00176157 0.00424738 0.399306)
(-0.00224894 0.00360532 0.385337)
(-0.00251428 0.00290819 0.368094)
(0.00684914 0.00794551 0.591699)
(0.0060853 0.00974056 0.617874)
(0.00476992 0.0113707 0.638967)
(0.00306538 0.0125835 0.653727)
(0.00105688 0.0132372 0.66132)
(-0.00105694 0.0132372 0.66132)
(-0.00306544 0.0125835 0.653727)
(-0.00476997 0.0113707 0.638967)
(-0.00608535 0.00974055 0.617874)
(-0.00684918 0.00794549 0.591699)
(0.0125712 0.0145859 0.796245)
(0.0110962 0.0176865 0.829294)
(0.00867251 0.0204763 0.855743)
(0.00554971 0.0225413 0.874187)
(0.00191012 0.0236488 0.883656)
(-0.00191021 0.0236488 0.883656)
(-0.0055498 0.0225413 0.874187)
(-0.00867259 0.0204762 0.855743)
(-0.0110963 0.0176865 0.829294)
(-0.0125712 0.0145858 0.796245)
(0.0188043 0.0217827 0.980999)
(0.0164783 0.0261031 1.01891)
(0.0128215 0.0299544 1.04901)
(0.00817024 0.0327863 1.06991)
(0.0028066 0.0342976 1.08062)
(-0.00280672 0.0342976 1.08062)
(-0.00817035 0.0327863 1.06991)
(-0.0128216 0.0299544 1.04901)
(-0.0164784 0.0261031 1.01891)
(-0.0188044 0.0217827 0.980998)
(0.024778 0.0286215 1.14584)
(0.0215409 0.0338539 1.18674)
(0.0166701 0.0384682 1.21893)
(0.0105758 0.041836 1.2412)
(0.00362519 0.043624 1.25257)
(-0.00362534 0.043624 1.25257)
(-0.0105759 0.041836 1.2412)
(-0.0166703 0.0384682 1.21893)
(-0.021541 0.0338539 1.18674)
(-0.0247781 0.0286215 1.14584)
(0.0298757 0.03438 1.29106)
(0.0257477 0.0400729 1.3333)
(0.0198042 0.0450283 1.36623)
(0.0125051 0.0486156 1.38892)
(0.00427661 0.0505099 1.40047)
(-0.00427678 0.0505099 1.40047)
(-0.0125052 0.0486156 1.38892)
(-0.0198044 0.0450283 1.36623)
(-0.0257478 0.0400729 1.3333)
(-0.0298758 0.03438 1.29106)
(0.0336427 0.0385257 1.41722)
(0.0287242 0.0441579 1.4594)
(0.0219463 0.0489816 1.492)
(0.0137878 0.0524415 1.51433)
(0.00470335 0.054258 1.52567)
(-0.00470355 0.054258 1.52567)
(-0.013788 0.0524415 1.51433)
(-0.0219465 0.0489816 1.49199)
(-0.0287243 0.0441579 1.4594)
(-0.0336428 0.0385257 1.41722)
(0.0358336 0.0407515 1.52487)
(0.030289 0.0458104 1.56606)
(0.022964 0.0500203 1.59753)
(0.0143428 0.05301 1.61891)
(0.00487816 0.0545684 1.6297)
(-0.00487838 0.0545684 1.6297)
(-0.014343 0.05301 1.61891)
(-0.0229642 0.0500203 1.59753)
(-0.0302892 0.0458104 1.56606)
(-0.0358338 0.0407515 1.52487)
(0.0364194 0.0413649 1.61442)
(0.0304078 0.0449407 1.65475)
(0.0227972 0.0480342 1.6844)
(0.0141335 0.0501996 1.70427)
(0.00478918 0.0513172 1.71422)
(-0.00478941 0.0513172 1.71422)
(-0.0141337 0.0501996 1.70427)
(-0.0227974 0.0480342 1.6844)
(-0.030408 0.0449408 1.65475)
(-0.0364196 0.0413649 1.61442)
(7.97168e-05 0.000107558 0.123959)
(5.58446e-05 0.00013644 0.1301)
(3.42588e-05 0.000153178 0.135061)
(2.09667e-05 0.000161459 0.138543)
(6.81369e-06 0.000165426 0.140338)
(-6.82148e-06 0.000165425 0.140338)
(-2.09744e-05 0.000161457 0.138543)
(-3.42656e-05 0.000153175 0.135061)
(-5.58508e-05 0.000136436 0.1301)
(-7.97218e-05 0.000107554 0.123959)
(0.00104103 0.00124312 0.359593)
(0.000894333 0.00154186 0.376391)
(0.000684021 0.00179333 0.389941)
(0.000436858 0.00197386 0.39944)
(0.000149957 0.00207041 0.404333)
(-0.000149985 0.00207041 0.404333)
(-0.000436885 0.00197385 0.39944)
(-0.000684045 0.00179332 0.389941)
(-0.000894355 0.00154185 0.376391)
(-0.00104105 0.00124311 0.359593)
(0.00286919 0.00337707 0.579278)
(0.00250596 0.00415392 0.605023)
(0.00194579 0.00483183 0.625716)
(0.001245 0.00532945 0.640195)
(0.000428391 0.00559638 0.647644)
(-0.000428441 0.00559638 0.647644)
(-0.00124505 0.00532945 0.640195)
(-0.00194584 0.00483182 0.625716)
(-0.002506 0.00415391 0.605022)
(-0.00286922 0.00337705 0.579278)
(0.00537848 0.00629144 0.782295)
(0.00471071 0.00767014 0.815232)
(0.00366896 0.00888532 0.841571)
(0.00234541 0.00978091 0.859956)
(0.00080697 0.0102608 0.8694)
(-0.000807045 0.0102608 0.8694)
(-0.00234548 0.0097809 0.859956)
(-0.00366903 0.00888531 0.841571)
(-0.00471077 0.00767012 0.815231)
(-0.00537853 0.00629142 0.782295)
(0.0082433 0.00959806 0.968152)
(0.00720359 0.011581 1.00653)
(0.00560354 0.0133291 1.03703)
(0.00357367 0.0146148 1.05825)
(0.00122829 0.0153018 1.06914)
(-0.00122839 0.0153018 1.06914)
(-0.00357377 0.0146148 1.05825)
(-0.00560363 0.0133291 1.03703)
(-0.00720367 0.011581 1.00653)
(-0.00824338 0.00959804 0.968151)
(0.0111318 0.0129041 1.13658)
(0.00967968 0.0153838 1.17869)
(0.00750333 0.017558 1.21193)
(0.00476945 0.0191492 1.23498)
(0.00163667 0.0199961 1.24678)
(-0.0016368 0.0199961 1.24678)
(-0.00476958 0.0191492 1.23498)
(-0.00750345 0.017558 1.21193)
(-0.00967978 0.0153837 1.17869)
(-0.0111319 0.0129041 1.13658)
(0.0137376 0.0158501 1.28747)
(0.0118645 0.0186327 1.33173)
(0.00915156 0.0210488 1.36639)
(0.0057937 0.0228051 1.39034)
(0.00198416 0.0237354 1.40258)
(-0.00198431 0.0237354 1.40258)
(-0.00579384 0.0228051 1.39034)
(-0.00915169 0.0210488 1.36639)
(-0.0118647 0.0186327 1.33173)
(-0.0137377 0.0158501 1.28747)
(0.0158018 0.0181311 1.42082)
(0.0135366 0.0209673 1.46579)
(0.0103787 0.023396 1.50074)
(0.00653976 0.025146 1.52479)
(0.00223433 0.0260677 1.53703)
(-0.0022345 0.0260677 1.53703)
(-0.00653992 0.025146 1.52479)
(-0.0103788 0.023396 1.50074)
(-0.0135367 0.0209673 1.46579)
(-0.0158019 0.0181311 1.42081)
(0.0171534 0.0195339 1.53652)
(0.0145578 0.022159 1.58118)
(0.0110792 0.0243475 1.61553)
(0.00694105 0.0259078 1.63898)
(0.00236444 0.0267235 1.65085)
(-0.00236462 0.0267235 1.65085)
(-0.00694123 0.0259078 1.63898)
(-0.0110794 0.0243475 1.61553)
(-0.0145579 0.022159 1.58118)
(-0.0171535 0.0195339 1.53652)
(0.0177276 0.0201578 1.63428)
(0.0148603 0.022096 1.67873)
(0.0111845 0.0237581 1.71164)
(0.00695467 0.0249248 1.73379)
(0.00236014 0.0255284 1.74491)
(-0.00236034 0.0255284 1.74491)
(-0.00695486 0.0249248 1.73379)
(-0.0111846 0.0237581 1.71164)
(-0.0148605 0.022096 1.67873)
(-0.0177278 0.0201578 1.63428)
(1.22993e-05 1.51262e-05 0.122459)
(8.38419e-06 2.06663e-05 0.128532)
(4.71437e-06 2.43068e-05 0.133435)
(3.47321e-06 2.63963e-05 0.136878)
(1.16608e-06 2.76103e-05 0.138653)
(-1.17205e-06 2.76098e-05 0.138653)
(-3.47896e-06 2.6395e-05 0.136878)
(-4.71974e-06 2.43047e-05 0.133435)
(-8.38916e-06 2.06635e-05 0.128532)
(-1.23033e-05 1.5123e-05 0.122459)
(0.000362206 0.00042322 0.355354)
(0.000316248 0.000528274 0.371981)
(0.000244975 0.000619929 0.385387)
(0.000158152 0.000687664 0.394788)
(5.45445e-05 0.000724474 0.39963)
(-5.4566e-05 0.000724472 0.39963)
(-0.000158173 0.00068766 0.394788)
(-0.000244994 0.000619923 0.385387)
(-0.000316266 0.000528266 0.371981)
(-0.000362221 0.000423211 0.355354)
(0.00108161 0.00125843 0.572943)
(0.000954081 0.00155652 0.598501)
(0.000746887 0.0018217 0.619042)
(0.000480851 0.00201978 0.633421)
(0.000165931 0.00212701 0.640821)
(-0.000165971 0.00212701 0.640821)
(-0.000480889 0.00201978 0.633421)
(-0.000746923 0.0018217 0.619042)
(-0.000954114 0.00155651 0.5985)
(-0.00108164 0.00125842 0.572943)
(0.00212079 0.00246102 0.774833)
(0.00187276 0.00301735 0.807689)
(0.0014687 0.00351456 0.833977)
(0.000943606 0.00388604 0.852342)
(0.000325446 0.00408657 0.861782)
(-0.000325505 0.00408657 0.861782)
(-0.000943663 0.00388603 0.852342)
(-0.00146875 0.00351455 0.833977)
(-0.00187281 0.00301733 0.807689)
(-0.00212084 0.002461 0.774833)
(0.00335862 0.00388572 0.960703)
(0.00295804 0.00471663 0.999231)
(0.00231627 0.00545807 1.02989)
(0.00148425 0.00601014 1.05125)
(0.000511338 0.00630716 1.06222)
(-0.000511418 0.00630715 1.06222)
(-0.00148433 0.00601013 1.05125)
(-0.00231634 0.00545807 1.02989)
(-0.00295811 0.00471661 0.999231)
(-0.00335868 0.0038857 0.960703)
(0.00465762 0.00536927 1.13031)
(0.00408218 0.00644146 1.17291)
(0.00318544 0.00739263 1.20659)
(0.00203446 0.00809695 1.22999)
(0.000699777 0.00847434 1.24198)
(-0.000699878 0.00847434 1.24198)
(-0.00203455 0.00809695 1.22999)
(-0.00318553 0.00739262 1.20659)
(-0.00408227 0.00644145 1.17291)
(-0.00465769 0.00536925 1.13031)
(0.00587914 0.00674865 1.28344)
(0.00511897 0.00798521 1.32857)
(0.00397507 0.00907173 1.364)
(0.0025286 0.0098705 1.38855)
(0.000868011 0.0102964 1.40111)
(-0.000868132 0.0102964 1.40111)
(-0.00252872 0.0098705 1.38855)
(-0.00397518 0.00907172 1.364)
(-0.00511907 0.0079852 1.32856)
(-0.00587923 0.00674864 1.28344)
(0.00689653 0.00787441 1.41988)
(0.00595723 0.00916642 1.46612)
(0.00459817 0.0102864 1.50218)
(0.00291105 0.011102 1.52706)
(0.000996872 0.0115342 1.53974)
(-0.000997011 0.0115342 1.53974)
(-0.00291119 0.011102 1.52706)
(-0.0045983 0.0102864 1.50218)
(-0.00595735 0.00916642 1.46612)
(-0.00689663 0.0078744 1.41988)
(0.00761798 0.00863343 1.53925)
(0.00651851 0.00985851 1.58556)
(0.0049928 0.0108917 1.62132)
(0.00314189 0.0116349 1.64579)
(0.00107259 0.0120254 1.6582)
(-0.00107274 0.0120254 1.6582)
(-0.00314204 0.0116349 1.64579)
(-0.00499294 0.0108917 1.62132)
(-0.00651864 0.00985851 1.58556)
(-0.0076181 0.00863343 1.53925)
(0.00799675 0.0090584 1.64092)
(0.00675136 0.00999434 1.6874)
(0.005111 0.0107955 1.72194)
(0.00319073 0.0113613 1.74525)
(0.00108488 0.011655 1.75698)
(-0.00108505 0.011655 1.75698)
(-0.00319089 0.0113613 1.74525)
(-0.00511115 0.0107955 1.72194)
(-0.00675151 0.00999435 1.6874)
(-0.00799688 0.00905841 1.64092)
(7.78014e-06 1.23657e-05 0.122061)
(3.23796e-06 1.61282e-05 0.128108)
(6.5041e-07 1.7248e-05 0.132983)
(1.6383e-07 1.72773e-05 0.136406)
(-2.56043e-08 1.71904e-05 0.138171)
(2.12263e-08 1.71901e-05 0.138171)
(-1.68062e-07 1.72764e-05 0.136406)
(-6.54368e-07 1.72464e-05 0.132983)
(-3.24173e-06 1.61261e-05 0.128108)
(-7.78314e-06 1.23632e-05 0.122061)
(0.0001394 0.000169368 0.354055)
(0.000115581 0.00021176 0.370604)
(8.66401e-05 0.000245147 0.383936)
(5.49751e-05 0.00026866 0.393283)
(1.87997e-05 0.000281167 0.398097)
(-1.88157e-05 0.000281166 0.398097)
(-5.49906e-05 0.000268657 0.393283)
(-8.66546e-05 0.000245143 0.383936)
(-0.000115595 0.000211754 0.370604)
(-0.000139411 0.000169361 0.354055)
(0.000419155 0.000495948 0.570858)
(0.000362006 0.000615302 0.596316)
(0.000279815 0.000717011 0.616766)
(0.000178972 0.000791718 0.63108)
(6.15689e-05 0.000831865 0.638446)
(-6.15988e-05 0.000831864 0.638446)
(-0.000179 0.000791714 0.63108)
(-0.000279842 0.000717005 0.616766)
(-0.000362031 0.000615293 0.596316)
(-0.000419176 0.000495937 0.570857)
(0.000834103 0.000976743 0.772262)
(0.000729052 0.00120266 0.80505)
(0.00056851 0.00140013 0.831277)
(0.000364301 0.00154667 0.8496)
(0.0001255 0.00162558 0.859019)
(-0.000125545 0.00162558 0.859019)
(-0.000364345 0.00154667 0.8496)
(-0.000568551 0.00140012 0.831276)
(-0.000729089 0.00120265 0.80505)
(-0.000834136 0.000976731 0.772262)
(0.00134387 0.00156348 0.958071)
(0.00117782 0.00190758 0.99662)
(0.000920248 0.00221085 1.02729)
(0.000589326 0.00243618 1.04868)
(0.000202986 0.00255738 1.05965)
(-0.000203048 0.00255738 1.05965)
(-0.000589385 0.00243618 1.04868)
(-0.000920305 0.00221084 1.02729)
(-0.00117787 0.00190757 0.996619)
(-0.00134392 0.00156347 0.958071)
(0.00189622 0.00219424 1.12809)
(0.00165892 0.0026476 1.17085)
(0.00129423 0.00304696 1.20467)
(0.000827037 0.00334279 1.22819)
(0.000284569 0.00350144 1.24025)
(-0.000284647 0.00350144 1.24025)
(-0.000827113 0.00334278 1.22819)
(-0.0012943 0.00304696 1.20467)
(-0.00165899 0.00264759 1.17085)
(-0.00189627 0.00219423 1.12809)
(0.00243308 0.00280075 1.28211)
(0.00211866 0.00333445 1.32758)
(0.00164688 0.00380163 1.36331)
(0.0010489 0.00414565 1.38809)
(0.000360308 0.00432934 1.40077)
(-0.000360401 0.00432934 1.40077)
(-0.00104899 0.00414564 1.38809)
(-0.00164696 0.00380163 1.36331)
(-0.00211874 0.00333445 1.32758)
(-0.00243315 0.00280074 1.28211)
(0.00289725 0.00331529 1.41986)
(0.00250592 0.00388418 1.46663)
(0.00193761 0.00437653 1.50316)
(0.0012287 0.00473589 1.52838)
(0.000421122 0.00492664 1.54124)
(-0.000421229 0.00492664 1.54124)
(-0.00122881 0.00473589 1.52838)
(-0.00193771 0.00437653 1.50316)
(-0.00250601 0.00388417 1.46663)
(-0.00289733 0.00331528 1.41986)
(0.0032436 0.00368198 1.54084)
(0.00278118 0.00423228 1.58788)
(0.00213481 0.00469647 1.62425)
(0.00134586 0.00503107 1.64918)
(0.000459879 0.00520715 1.66183)
(-0.000459998 0.00520715 1.66183)
(-0.00134598 0.00503107 1.64918)
(-0.00213492 0.00469647 1.62425)
(-0.00278128 0.00423228 1.58788)
(-0.0032437 0.00368198 1.54084)
(0.00344535 0.00390825 1.64428)
(0.00291524 0.00433994 1.69168)
(0.00221217 0.00470786 1.72697)
(0.00138361 0.00496815 1.75081)
(0.000470874 0.00510347 1.76282)
(-0.000471001 0.00510347 1.76282)
(-0.00138373 0.00496815 1.75081)
(-0.00221229 0.00470787 1.72697)
(-0.00291535 0.00433995 1.69168)
(-0.00344545 0.00390825 1.64428)
(-4.1307e-07 2.183e-07 0.121883)
(-1.44866e-06 7.1364e-07 0.127921)
(-1.64433e-06 5.45099e-07 0.132788)
(-1.06848e-06 2.35608e-07 0.136206)
(-3.86506e-07 6.01961e-08 0.137968)
(3.83433e-07 5.99667e-08 0.137968)
(1.06549e-06 2.34933e-07 0.136206)
(1.64151e-06 5.44024e-07 0.132788)
(1.44595e-06 7.12133e-07 0.127921)
(4.10912e-07 2.16508e-07 0.121883)
(3.96334e-05 4.76714e-05 0.353485)
(3.26061e-05 6.05547e-05 0.370005)
(2.44305e-05 7.07453e-05 0.383311)
(1.5609e-05 7.80731e-05 0.39264)
(5.34826e-06 8.20249e-05 0.397446)
(-5.3597e-06 8.20242e-05 0.397446)
(-1.56201e-05 7.80712e-05 0.39264)
(-2.44409e-05 7.07422e-05 0.383311)
(-3.26159e-05 6.05504e-05 0.370005)
(-3.96414e-05 4.76662e-05 0.353485)
(0.000135653 0.000159229 0.569929)
(0.000117508 0.000199645 0.595347)
(9.12693e-05 0.000234415 0.615762)
(5.86659e-05 0.000260351 0.630052)
(2.02249e-05 0.000274406 0.637406)
(-2.02464e-05 0.000274405 0.637406)
(-5.86868e-05 0.000260348 0.630052)
(-9.12889e-05 0.000234411 0.615761)
(-0.000117526 0.000199639 0.595347)
(-0.000135669 0.000159221 0.569929)
(0.00028701 0.000333882 0.771079)
(0.00025214 0.000414772 0.803834)
(0.000197705 0.00048613 0.830033)
(0.000127258 0.000539767 0.848339)
(4.39309e-05 0.000568847 0.857749)
(-4.39637e-05 0.000568846 0.857749)
(-0.00012729 0.000539763 0.848339)
(-0.000197736 0.000486125 0.830033)
(-0.000252168 0.000414765 0.803834)
(-0.000287034 0.000333873 0.771079)
(0.000481139 0.000556492 0.956794)
(0.00042422 0.000684493 0.99534)
(0.000333382 0.000798326 1.02601)
(0.000214438 0.000883885 1.0474)
(7.40152e-05 0.000930194 1.05838)
(-7.40601e-05 0.000930192 1.05838)
(-0.000214482 0.000883881 1.0474)
(-0.000333423 0.000798321 1.02601)
(-0.000424258 0.000684485 0.99534)
(-0.000481172 0.000556483 0.956793)
(0.000699131 0.000804611 1.12691)
(0.000615664 0.00097831 1.16972)
(0.000483213 0.00113272 1.2036)
(0.000310146 0.00124833 1.22716)
(0.000106941 0.0013107 1.23924)
(-0.000106999 0.0013107 1.23924)
(-0.000310202 0.00124833 1.22716)
(-0.000483266 0.00113271 1.2036)
(-0.000615712 0.000978303 1.16972)
(-0.000699174 0.000804602 1.12691)
(0.000918201 0.00105142 1.28123)
(0.000805122 0.00126096 1.32682)
(0.00062967 0.00144608 1.36267)
(0.000402806 0.00158378 1.38754)
(0.00013866 0.00165773 1.40026)
(-0.000138729 0.00165773 1.40026)
(-0.000402874 0.00158378 1.38754)
(-0.000629734 0.00144607 1.36267)
(-0.000805182 0.00126095 1.32682)
(-0.000918253 0.00105141 1.28123)
(0.00111458 0.00126881 1.41946)
(0.000970992 0.00149696 1.46645)
(0.000755342 0.00169626 1.50315)
(0.000481044 0.00184308 1.52852)
(0.000165209 0.00192141 1.54146)
(-0.000165288 0.00192141 1.54146)
(-0.000481122 0.00184308 1.52852)
(-0.000755417 0.00169626 1.50315)
(-0.000971061 0.00149696 1.46645)
(-0.00111464 0.0012688 1.41946)
(0.00126851 0.00143258 1.54107)
(0.00109539 0.00165776 1.58841)
(0.000845649 0.00184926 1.62504)
(0.00053526 0.00198833 1.65016)
(0.000183243 0.00206182 1.66291)
(-0.000183332 0.00206182 1.66291)
(-0.000535348 0.00198833 1.65016)
(-0.000845732 0.00184926 1.62504)
(-0.00109547 0.00165776 1.58841)
(-0.00126857 0.00143258 1.54107)
(0.00136679 0.00154442 1.64523)
(0.00116355 0.00172583 1.69303)
(0.000887509 0.00187999 1.72863)
(0.000557048 0.00198956 1.75271)
(0.000189887 0.0020467 1.76483)
(-0.000189983 0.0020467 1.76483)
(-0.000557142 0.00198957 1.75271)
(-0.000887599 0.00187999 1.72863)
(-0.00116363 0.00172584 1.69303)
(-0.00136687 0.00154442 1.64523)
(2.95498e-08 7.92714e-07 0.121854)
(-8.26875e-07 1.17927e-06 0.127889)
(-1.03513e-06 1.01264e-06 0.132753)
(-7.51248e-07 7.25451e-07 0.136168)
(-2.79216e-07 5.42163e-07 0.137929)
(2.77146e-07 5.42012e-07 0.137929)
(7.49233e-07 7.24994e-07 0.136168)
(1.03322e-06 1.0119e-06 0.132753)
(8.25067e-07 1.17823e-06 0.127889)
(-3.10447e-08 7.91505e-07 0.121854)
(1.13808e-05 1.49281e-05 0.35335)
(8.07872e-06 1.92131e-05 0.369859)
(5.40684e-06 2.19499e-05 0.383153)
(3.2475e-06 2.36887e-05 0.392474)
(1.07427e-06 2.45718e-05 0.397274)
(-1.0821e-06 2.45714e-05 0.397274)
(-3.2551e-06 2.36874e-05 0.392474)
(-5.414e-06 2.19477e-05 0.383153)
(-8.08534e-06 1.92101e-05 0.369859)
(-1.13864e-05 1.49246e-05 0.35335)