/*--------------------------------*- C++ -*----------------------------------*\
| =========                 |                                                 |
| \\      /  F ield         | OpenFOAM: The Open Source CFD Toolbox           |
|  \\    /   O peration     | Version:  2106                                  |
|   \\  /    A nd           | Website:  www.openfoam.com                      |
|    \\/     M anipulation  |                                                 |
\*---------------------------------------------------------------------------*/
FoamFile
{
    version     2.0;
    format      ascii;
    arch        "LSB;label=32;scalar=64";
    class       surfaceScalarField;
    location    "0.7";
    object      phi;
}
// * * * * * * * * * * * * * * * * * * * * * * * * * * * * * * * * * * * * * //

dimensions      [0 3 -1 0 0 0 0];

oriented        oriented;

internalField   nonuniform List<scalar> 
29100
(
0.00118092
0.150399
0.0809211
-1.87171e-10
0.00145318
0.155276
0.0889272
0.00124705
0.158695
0.0956152
0.000710204
0.160973
0.100402
-1.88065e-09
0.162116
0.102895
-0.000710208
0.162116
0.102895
-0.00124705
0.160973
0.100402
-0.00145318
0.158695
0.0956152
-0.00118092
0.155276
0.0889272
0.150399
0.0809211
-2.62292e-09
0.00236443
0.208247
0.155456
-3.79958e-10
0.00328429
0.212832
0.168979
0.00292933
0.215903
0.180037
0.00169459
0.21782
0.187857
-5.39216e-09
0.21876
0.191898
-0.0016946
0.21876
0.191898
-0.00292934
0.21782
0.187857
-0.0032843
0.215903
0.180037
-0.00236444
0.212832
0.168979
0.208247
0.155456
-7.14132e-09
0.0030163
0.219389
0.184679
-5.61631e-10
0.00426633
0.222314
0.199702
0.00382969
0.224221
0.211795
0.00221812
0.225262
0.220271
-8.69622e-09
0.225744
0.224627
-0.00221814
0.225744
0.224627
-0.00382971
0.225262
0.220271
-0.00426634
0.224221
0.211795
-0.00301632
0.222314
0.199702
0.219389
0.184679
-1.11895e-08
0.00344509
0.20617
0.191778
-6.85624e-10
0.0048065
0.207428
0.206939
0.00430556
0.208195
0.218989
0.00248929
0.208435
0.227375
-1.19834e-08
0.208506
0.231668
-0.00248932
0.208506
0.231668
-0.00430558
0.208435
0.227375
-0.00480652
0.208195
0.218989
-0.00344511
0.207428
0.206939
0.20617
0.191778
-1.48691e-08
0.00367442
0.181257
0.186411
-7.89198e-10
0.00505721
0.181233
0.201207
0.00451788
0.181134
0.212849
0.00260865
0.180804
0.220904
-1.53675e-08
0.180588
0.225013
-0.00260868
0.180588
0.225013
-0.00451791
0.180804
0.220904
-0.00505723
0.181134
0.212849
-0.00367444
0.181233
0.201207
0.181257
0.186411
-1.83219e-08
0.00375937
0.151928
0.173909
-9.01696e-10
0.00512318
0.151053
0.188189
0.00456734
0.15039
0.199334
0.00263572
0.149727
0.207004
-1.88906e-08
0.14935
0.210907
-0.00263576
0.14935
0.210907
-0.00456738
0.149727
0.207004
-0.00512321
0.15039
0.199334
-0.0037594
0.151053
0.188189
0.151928
0.173909
-2.1577e-08
0.00376743
0.122264
0.157405
-1.04879e-09
0.00509819
0.120908
0.171167
0.00453821
0.119931
0.181838
0.00261875
0.119125
0.189148
-2.25511e-08
0.118689
0.192859
-0.00261879
0.118689
0.192859
-0.00453825
0.119125
0.189148
-0.00509823
0.119931
0.181838
-0.00376746
0.120908
0.171167
0.122264
0.157405
-2.46713e-08
0.00373316
0.094479
0.138728
-1.20592e-09
0.00504447
0.0929005
0.152029
0.00449024
0.0918063
0.162285
0.00259226
0.0910014
0.169279
-2.62499e-08
0.090585
0.172822
-0.00259231
0.090585
0.172822
-0.00449029
0.0910014
0.169279
-0.00504451
0.0918063
0.162285
-0.00373319
0.0929005
0.152029
0.094479
0.138728
-2.75505e-08
0.00370158
0.0696877
0.118934
-1.28365e-09
0.00502644
0.068051
0.131836
0.00447562
0.0670113
0.141738
0.00258301
0.0663233
0.14846
-2.97826e-08
0.0659828
0.151857
-0.00258307
0.0659828
0.151857
-0.00447567
0.0663233
0.14846
-0.00502648
0.0670113
0.141738
-0.00370162
0.068051
0.131836
0.0696877
0.118934
-3.01595e-08
0.00392187
0.0986232
-1.52783e-09
0.0481547
0.00521618
0.111188
0.0468599
0.00458815
0.12078
0.0460377
0.00262803
0.127264
0.0455403
-3.27253e-08
0.130533
0.0452965
-0.00262809
0.130533
0.0452965
-0.0045882
0.127264
0.0455403
-0.00521623
0.12078
0.0460377
-0.00392191
0.111188
0.0468599
0.0986232
-3.20929e-08
0.0481547
-0.000240347
0.0365286
0.0446329
-3.11857e-10
-0.00024239
0.039703
0.0492262
-0.000170356
0.0423855
0.0531576
-8.48294e-05
0.0443038
0.0560129
-3.2387e-09
0.0452962
0.0575142
8.48229e-05
0.0452962
0.0575142
0.00017035
0.0443038
0.0560129
0.000242385
0.0423855
0.0531576
0.000240342
0.039703
0.0492262
0.0365286
0.0446329
-4.54765e-09
6.49512e-05
0.0806984
0.111221
-6.63104e-10
0.000253342
0.0864893
0.122005
0.000302644
0.091305
0.131068
0.0002027
0.0946794
0.137581
-1.01352e-08
0.0964127
0.140984
-0.00020272
0.0964127
0.140984
-0.000302663
0.0946794
0.137581
-0.000253359
0.091305
0.131068
-6.49661e-05
0.0864893
0.122005
0.0806984
0.111221
-1.33222e-08
0.000614883
0.112206
0.152556
-9.94548e-10
0.00103327
0.118918
0.166855
0.00101094
0.124426
0.178696
0.000617828
0.128211
0.187133
-1.7169e-08
0.13014
0.191518
-0.000617861
0.13014
0.191518
-0.00101097
0.128211
0.187133
-0.0010333
0.124426
0.178696
-0.000614907
0.118918
0.166855
0.112206
0.152556
-2.16697e-08
0.00123427
0.128714
0.174037
-1.22984e-09
0.00187765
0.135109
0.190104
0.00176675
0.140291
0.203235
0.00105517
0.143777
0.21252
-2.42978e-08
0.145538
0.217325
-0.00105522
0.145538
0.217325
-0.0017668
0.143777
0.21252
-0.00187769
0.140291
0.203235
-0.00123431
0.135109
0.190104
0.128714
0.174037
-2.94261e-08
0.00184002
0.131953
0.181332
-1.45316e-09
0.00268014
0.137342
0.198133
0.00247698
0.141641
0.211702
0.00146321
0.144465
0.22123
-3.152e-08
0.145874
0.22614
-0.00146327
0.145874
0.22614
-0.00247703
0.144465
0.22123
-0.00268019
0.141641
0.211702
-0.00184006
0.137342
0.198133
0.131953
0.181332
-3.66427e-08
0.00238814
0.124952
0.178522
-1.73333e-09
0.00339416
0.129064
0.19546
0.00310444
0.132268
0.208996
0.0018225
0.134312
0.218439
-3.87937e-08
0.135317
0.223287
-0.00182258
0.135317
0.223287
-0.00310451
0.134312
0.218439
-0.00339422
0.132268
0.208996
-0.00238819
0.129064
0.19546
0.124952
0.178522
-4.3258e-08
0.0028555
0.110935
0.168567
-2.15474e-09
0.00400328
0.113764
0.18532
0.00364061
0.115888
0.198581
0.00213005
0.117195
0.207776
-4.5993e-08
0.117825
0.212481
-0.00213014
0.117825
0.212481
-0.00364069
0.117195
0.207776
-0.00400336
0.115888
0.198581
-0.00285556
0.113764
0.18532
0.110935
0.168567
-4.92208e-08
0.00323628
0.0928151
0.153612
-2.67598e-09
0.00451715
0.0944896
0.170023
0.00409917
0.0956859
0.182905
0.00239463
0.0963935
0.191785
-5.28314e-08
0.0967283
0.196313
-0.00239474
0.0967283
0.196313
-0.00409927
0.0963935
0.191785
-0.00451724
0.0956859
0.182905
-0.00323634
0.0944896
0.170023
0.0928152
0.153612
-5.43088e-08
0.00356626
0.0729891
0.135194
-3.25624e-09
0.00498495
0.0737016
0.151206
0.00451788
0.0742127
0.163678
0.00263506
0.0745112
0.172225
-5.88452e-08
0.0746525
0.176568
-0.00263517
0.0746525
0.176568
-0.00451799
0.0745112
0.172225
-0.00498504
0.0742127
0.163678
-0.00356634
0.0737016
0.151206
0.0729891
0.135194
-5.82161e-08
0.00399255
0.114404
-3.80387e-09
0.0532162
0.00553091
0.130027
0.0533246
0.00497352
0.142089
0.0534608
0.00288471
0.150306
0.0535582
-6.33814e-08
0.154467
0.0536036
-0.00288484
0.154467
0.0536036
-0.00497364
0.150306
0.0535582
-0.00553101
0.142089
0.0534608
-0.00399262
0.130027
0.0533246
0.114404
-6.02563e-08
0.0532162
3.9306e-05
0.0099964
0.0345972
-3.34375e-10
3.52779e-05
0.0110303
0.0381999
2.97281e-05
0.0119078
0.0412554
1.6476e-05
0.0125592
0.0434669
-3.61474e-09
0.0129024
0.0446283
-1.64831e-05
0.0129024
0.0446283
-2.97349e-05
0.0125592
0.0434669
-3.52841e-05
0.0119078
0.0412554
-3.93116e-05
0.0110303
0.0381999
0.0099964
0.0345972
-5.20405e-09
0.00028151
0.030312
0.0906238
-6.26394e-10
0.000382323
0.0330226
0.0999117
0.000341716
0.0352909
0.107726
0.000199335
0.0369268
0.113356
-1.16995e-08
0.0377815
0.116304
-0.000199358
0.0377815
0.116304
-0.000341738
0.0369268
0.113356
-0.000382343
0.0352909
0.107726
-0.000281527
0.0330226
0.0999116
0.030312
0.0906238
-1.55591e-08
0.000601245
0.0512282
0.131039
-9.91553e-10
0.000853165
0.0552324
0.144394
0.000772962
0.058539
0.155528
0.000453065
0.060871
0.163509
-2.01702e-08
0.0620789
0.167673
-0.000453104
0.0620789
0.167673
-0.000773
0.060871
0.163508
-0.000853199
0.058539
0.155528
-0.000601274
0.0552324
0.144394
0.0512282
0.131039
-2.55528e-08
0.000968786
0.0670462
0.15725
-1.34707e-09
0.00139038
0.0716276
0.173288
0.00126994
0.075365
0.18653
0.000745819
0.0779496
0.195966
-2.88775e-08
0.0792763
0.200874
-0.000745876
0.0792763
0.200874
-0.00126999
0.0779496
0.195966
-0.00139042
0.0753651
0.18653
-0.000968827
0.0716276
0.173288
0.0670462
0.15725
-3.48975e-08
0.00135902
0.0757688
0.17125
-1.73776e-09
0.00194669
0.0802678
0.188905
0.0017825
0.0838897
0.203341
0.00104711
0.0863465
0.213568
-3.7697e-08
0.087595
0.218868
-0.00104718
0.087595
0.218868
-0.00178257
0.0863465
0.213568
-0.00194675
0.0838897
0.203341
-0.00135907
0.0802678
0.188905
0.0757688
0.17125
-4.35228e-08
0.00175155
0.0774115
0.175127
-2.2228e-09
0.002492
0.0813607
0.193627
0.00228081
0.0844855
0.208611
0.00133909
0.0865626
0.219164
-4.64712e-08
0.0876067
0.224614
-0.00133918
0.0876067
0.224614
-0.00228089
0.0865626
0.219164
-0.00249207
0.0844855
0.208611
-0.00175161
0.0813607
0.193627
0.0774115
0.175127
-5.12805e-08
0.00212306
0.0730463
0.170809
-2.91243e-09
0.00300205
0.0761825
0.189619
0.00274489
0.0786069
0.204717
0.00161063
0.0801849
0.215288
-5.49844e-08
0.0809692
0.220729
-0.00161074
0.0809692
0.220729
-0.00274499
0.0801849
0.215288
-0.00300213
0.0786069
0.204717
-0.00212313
0.0761825
0.189619
0.0730463
0.170809
-5.80482e-08
0.00245743
0.0642249
0.159976
-3.79363e-09
0.00346678
0.0664507
0.178745
0.00316814
0.0681283
0.193682
0.0018581
0.0692006
0.20408
-6.28547e-08
0.0697287
0.209412
-0.00185822
0.0697287
0.209412
-0.00316825
0.0692006
0.20408
-0.00346687
0.0681283
0.193682
-0.00245751
0.0664507
0.178745
0.0642249
0.159976
-6.36241e-08
0.00276717
0.0526092
0.144042
-4.95075e-09
0.00390203
0.053959
0.162563
0.00356023
0.0549703
0.177178
0.00208512
0.0556143
0.187287
-6.94901e-08
0.0559311
0.192451
-0.00208525
0.0559311
0.192451
-0.00356036
0.0556143
0.187287
-0.00390214
0.0549703
0.177178
-0.00276725
0.053959
0.162563
0.0526092
0.144042
-6.78936e-08
0.00311036
0.124176
-6.28001e-09
0.0397264
0.00435151
0.142365
0.0403797
0.00394782
0.15656
0.0409031
0.00230275
0.166311
0.0412547
-7.39261e-08
0.171272
0.0414284
-0.0023029
0.171272
0.0414284
-0.00394795
0.166311
0.0412547
-0.00435162
0.15656
0.0409031
-0.00311045
0.142365
0.0403797
0.124176
-7.00753e-08
0.0397264
-3.16212e-05
0.00408304
0.0305458
-3.67195e-10
-4.51564e-05
0.00449619
0.0337173
-3.63987e-05
0.00484678
0.0363999
-2.0064e-05
0.00510745
0.0383431
-3.3993e-09
0.00524401
0.0393642
2.00572e-05
0.00524401
0.0393642
3.63923e-05
0.00510745
0.0383431
4.51503e-05
0.00484678
0.0363999
3.16156e-05
0.0044962
0.0337173
0.00408304
0.0305458
-5.09724e-09
1.01925e-05
0.0126794
0.0820173
-6.91236e-10
1.75734e-05
0.0138938
0.0905067
2.19799e-05
0.0149228
0.0976452
1.56609e-05
0.0156729
0.102797
-1.12641e-08
0.0160662
0.105498
-1.5683e-05
0.0160662
0.105498
-2.20008e-05
0.0156729
0.102797
-1.7592e-05
0.0149228
0.0976452
-1.02085e-05
0.0138938
0.0905067
0.0126794
0.0820173
-1.52913e-08
0.000123927
0.0225716
0.121022
-1.09642e-09
0.000187918
0.0245886
0.133635
0.00018045
0.0262865
0.144172
0.00010993
0.0275054
0.151747
-1.9703e-08
0.0281417
0.155708
-0.000109969
0.0281417
0.155708
-0.000180486
0.0275054
0.151747
-0.000187951
0.0262865
0.144172
-0.000123956
0.0245887
0.133635
0.0225716
0.121022
-2.54504e-08
0.000294957
0.0312973
0.148229
-1.51571e-09
0.000439798
0.0338668
0.163865
0.000414596
0.0360088
0.176833
0.000248575
0.0375238
0.186114
-2.84662e-08
0.0383099
0.190954
-0.00024863
0.0383099
0.190954
-0.000414648
0.0375238
0.186114
-0.000439845
0.0360088
0.176833
-0.000294997
0.0338668
0.163865
0.0312973
0.148229
-3.49136e-08
0.000507624
0.0373318
0.164708
-2.00391e-09
0.000746164
0.040112
0.182421
0.000697954
0.0424001
0.196998
0.00041576
0.0439939
0.20738
-3.73703e-08
0.0448147
0.212779
-0.000415833
0.0448147
0.212779
-0.000698022
0.0439939
0.20738
-0.000746224
0.0424001
0.196998
-0.000507675
0.040112
0.182421
0.0373318
0.164708
-4.35932e-08
0.000745861
0.0400212
0.171692
-2.6132e-09
0.00108291
0.0426902
0.190712
0.00100749
0.0448496
0.206237
0.000597839
0.0463295
0.217238
-4.61984e-08
0.047085
0.222942
-0.000597929
0.047085
0.222942
-0.00100757
0.0463295
0.217238
-0.00108299
0.0448497
0.206237
-0.000745922
0.0426902
0.190712
0.0400213
0.171692
-5.13197e-08
0.000992342
0.0393831
0.170455
-3.46997e-09
0.00142827
0.0416951
0.190178
0.00132387
0.0435252
0.206146
0.00078361
0.0447582
0.2174
-5.46824e-08
0.0453821
0.223216
-0.000783716
0.0453821
0.223216
-0.00132397
0.0447582
0.2174
-0.00142836
0.0435252
0.206146
-0.000992412
0.0416952
0.190178
0.0393831
0.170455
-5.79235e-08
0.00123405
0.0358956
0.162229
-4.56356e-09
0.00176885
0.0376987
0.182207
0.00163532
0.0390927
0.198249
0.000966046
0.0400174
0.20949
-6.24013e-08
0.0404814
0.215278
-0.000966168
0.0404814
0.215278
-0.00163543
0.0400174
0.20949
-0.00176894
0.0390927
0.198248
-0.00123413
0.0376987
0.182207
0.0358956
0.162229
-6.3167e-08
0.00147515
0.0303023
0.14816
-5.92109e-09
0.00210701
0.0315442
0.168085
0.00194038
0.0324893
0.183948
0.001143
0.0331105
0.194991
-6.87416e-08
0.0334208
0.200655
-0.00114314
0.0334208
0.200655
-0.0019405
0.0331106
0.194991
-0.00210712
0.0324893
0.183948
-0.00147523
0.0315442
0.168085
0.0303023
0.14816
-6.68937e-08
0.00173018
0.129289
-7.28705e-09
0.0234593
0.00245316
0.149009
0.0241771
0.00224625
0.164514
0.0247421
0.00131757
0.175227
0.0251225
-7.27551e-08
0.180698
0.0253126
-0.00131771
0.180698
0.0253126
-0.00224638
0.175227
0.0251225
-0.00245326
0.164514
0.0247421
-0.00173026
0.149009
0.0241771
0.129289
-6.82836e-08
0.0234593
2.11287e-06
0.0013355
0.0292082
-3.77716e-10
-2.67081e-07
0.00148292
0.0322367
1.31469e-07
0.00161113
0.0347884
1.44514e-07
0.001709
0.0366341
-2.92138e-09
0.0017612
0.0376032
-1.50295e-07
0.0017612
0.0376032
-1.37034e-07
0.001709
0.0366341
2.61874e-07
0.00161113
0.0347883
-2.11761e-06
0.00148292
0.0322367
0.0013355
0.0292082
-4.59787e-09
3.09047e-05
0.00479227
0.0785296
-8.36676e-10
3.99556e-05
0.0052894
0.0866912
3.67988e-05
0.00571651
0.093543
2.18257e-05
0.00603382
0.0984872
-9.8396e-09
0.00620194
0.101079
-2.18451e-05
0.00620194
0.101079
-3.68173e-05
0.00603382
0.0984872
-3.99725e-05
0.00571652
0.093543
-3.092e-05
0.0052894
0.0866912
0.00479227
0.0785296
-1.39629e-08
8.62176e-05
0.0092467
0.116482
-1.27593e-09
0.000122204
0.0101495
0.128739
0.000112796
0.0109184
0.138979
6.69474e-05
0.0114793
0.146347
-1.7389e-08
0.0117749
0.150202
-6.69816e-05
0.0117749
0.150202
-0.000112828
0.0114793
0.146347
-0.000122233
0.0109184
0.138979
-8.62434e-05
0.0101495
0.128739
0.00924671
0.116482
-2.30773e-08
0.000167807
0.0135889
0.143719
-1.71621e-09
0.000243659
0.0148274
0.159111
0.000226295
0.0158721
0.171896
0.000134386
0.0166229
0.181062
-2.53029e-08
0.0170161
0.185847
-0.000134436
0.0170161
0.185847
-0.000226342
0.0166229
0.181062
-0.0002437
0.0158721
0.171896
-0.000167843
0.0148274
0.159111
0.013589
0.143719
-3.1638e-08
0.000272707
0.0169846
0.16104
-2.22828e-09
0.000397482
0.0184141
0.17871
0.000369915
0.0196058
0.193292
0.000219625
0.02045
0.203703
-3.3377e-08
0.020889
0.209126
-0.00021969
0.020889
0.209126
-0.000369976
0.0204501
0.203703
-0.000397536
0.0196058
0.193292
-0.000272753
0.0184141
0.17871
0.0169847
0.16104
-3.95103e-08
0.000395531
0.0189345
0.169347
-2.86901e-09
0.000574657
0.0203879
0.188559
0.000534615
0.0215816
0.204302
0.000317162
0.0224147
0.215491
-4.13806e-08
0.0228445
0.221303
-0.000317243
0.0228445
0.221303
-0.000534689
0.0224148
0.215491
-0.000574723
0.0215817
0.204302
-0.000395586
0.0203879
0.188559
0.0189346
0.169347
-4.64919e-08
0.000528783
0.0192631
0.169597
-3.74129e-09
0.000764917
0.0205899
0.18974
0.000710783
0.0216595
0.206122
0.000421256
0.0223945
0.21771
-4.90431e-08
0.0227705
0.223711
-0.000421351
0.0227705
0.223711
-0.000710871
0.0223945
0.21771
-0.000764994
0.0216595
0.206122
-0.000528846
0.0205899
0.18974
0.0192631
0.169597
-5.24025e-08
0.000665711
0.0180648
0.162762
-4.81315e-09
0.000960138
0.0191542
0.183348
0.000890641
0.0200147
0.199963
0.000527106
0.0205972
0.211651
-5.59607e-08
0.0208926
0.217683
-0.000527214
0.0208926
0.217683
-0.00089074
0.0205972
0.211651
-0.000960224
0.0200147
0.199963
-0.000665781
0.0191542
0.183348
0.0180648
0.162762
-5.70109e-08
0.00080629
0.0156297
0.149789
-6.11186e-09
0.00115738
0.0164255
0.170463
0.00106934
0.0170419
0.187009
0.000631189
0.0174539
0.198573
-6.15667e-08
0.0176614
0.204517
-0.000631308
0.0176614
0.204517
-0.00106945
0.0174539
0.198572
-0.00115747
0.0170419
0.187009
-0.000806364
0.0164255
0.170463
0.0156297
0.149789
-6.01968e-08
0.000945199
0.131598
-7.4407e-09
0.0123756
0.00134887
0.152165
0.0128664
0.00124156
0.168411
0.013252
0.000730669
0.179679
0.0135136
-6.49974e-08
0.185445
0.0136453
-0.000730795
0.185445
0.0136453
-0.00124167
0.179679
0.0135136
-0.00134897
0.168411
0.013252
-0.000945274
0.152164
0.0128664
0.131598
-6.12332e-08
0.0123756
-5.57318e-06
0.000582447
0.0286313
-3.22174e-10
-8.30826e-06
0.000640754
0.0315987
-6.58296e-06
0.000690085
0.0340965
-3.62815e-06
0.000727584
0.0359036
-2.31489e-09
0.000747295
0.0368522
3.62333e-06
0.000747295
0.0368522
6.57843e-06
0.000727584
0.0359036
8.30409e-06
0.000690086
0.0340965
5.56907e-06
0.000640755
0.0315987
0.000582448
0.0286313
-3.90644e-09
-8.71006e-07
0.0020293
0.0770836
-6.91459e-10
-1.91241e-06
0.00223558
0.0850974
-6.42773e-07
0.00241136
0.0918204
1.60199e-07
0.00254204
0.0966719
-7.87107e-09
0.00261127
0.099215
-1.74542e-07
0.00261127
0.099215
6.27993e-07
0.00254204
0.0966719
1.89735e-06
0.00241136
0.0918204
8.5832e-07
0.00223559
0.0850974
0.00202931
0.0770836
-1.17864e-08
1.77103e-05
0.00394711
0.114546
-1.13687e-09
2.6196e-05
0.00434083
0.126625
2.56911e-05
0.00467638
0.136715
1.58742e-05
0.00492259
0.143976
-1.4283e-08
0.00505271
0.147776
-1.59025e-05
0.00505271
0.147776
-2.57177e-05
0.0049226
0.143976
-2.622e-05
0.00467639
0.136715
-1.77317e-05
0.00434084
0.126625
0.00394712
0.114546
-1.94981e-08
5.08315e-05
0.00591573
0.1417
-1.60749e-09
7.5664e-05
0.00648265
0.156944
7.20216e-05
0.00696326
0.169613
4.34753e-05
0.00731163
0.178701
-2.09496e-08
0.00749489
0.183449
-4.35164e-05
0.00749489
0.183449
-7.20601e-05
0.00731163
0.178701
-7.56986e-05
0.00696327
0.169613
-5.08615e-05
0.00648266
0.156944
0.00591574
0.1417
-2.67633e-08
9.72638e-05
0.00756369
0.159294
-2.13823e-09
0.000144069
0.00824862
0.176897
0.000136034
0.00882387
0.19144
8.15419e-05
0.00923563
0.201834
-2.77412e-08
0.00945094
0.207252
-8.15962e-05
0.00945094
0.207252
-0.000136085
0.00923564
0.201834
-0.000144114
0.00882389
0.19144
-9.7302e-05
0.00824864
0.176897
0.0075637
0.159294
-3.34528e-08
0.000154867
0.00862574
0.16813
-2.76234e-09
0.000227794
0.00935262
0.187382
0.000214138
0.00995501
0.203184
0.000127901
0.0103804
0.214433
-3.44767e-08
0.0106013
0.220281
-0.000127968
0.0106013
0.220281
-0.0002142
0.0103804
0.214432
-0.000227849
0.00995502
0.203184
-0.000154913
0.00935264
0.187382
0.00862576
0.16813
-3.93846e-08
0.000220407
0.00896547
0.169037
-3.57663e-09
0.000322241
0.00965655
0.189334
0.000301958
0.0102195
0.205878
0.000179913
0.0106114
0.217601
-4.09184e-08
0.0108133
0.223679
-0.000179993
0.0108133
0.223679
-0.000302032
0.0106114
0.217601
-0.000322305
0.0102195
0.205878
-0.00022046
0.00965657
0.189334
0.00896549
0.169037
-4.43969e-08
0.000290851
0.00857291
0.162864
-4.57987e-09
0.00042346
0.00916364
0.183708
0.000395546
0.00963572
0.200574
0.000235097
0.0099595
0.212463
-4.67203e-08
0.0101249
0.218607
-0.000235188
0.0101249
0.218607
-0.000395629
0.00995951
0.212463
-0.000423532
0.00963574
0.200574
-0.000290909
0.00916365
0.183708
0.00857293
0.162864
-4.8291e-08
0.000366365
0.00754408
0.150452
-5.79233e-09
0.000529737
0.00799501
0.171468
0.000492078
0.00834797
0.188334
0.000291424
0.00858654
0.200146
-5.14101e-08
0.0087074
0.206226
-0.000291524
0.0087074
0.206226
-0.000492169
0.00858655
0.200146
-0.000529815
0.00834798
0.188334
-0.000366426
0.00799503
0.171468
0.0075441
0.150452
-5.0969e-08
0.000442105
0.132641
-6.96519e-09
0.00605874
0.000635487
0.153615
0.00635083
0.000588053
0.170225
0.00658145
0.000347195
0.181767
0.00673881
-5.42807e-08
0.187681
0.00681841
-0.0003473
0.187681
0.00681841
-0.000588148
0.181767
0.00673882
-0.000635567
0.170225
0.00658146
-0.000442168
0.153615
0.00635084
0.132641
-5.18604e-08
0.00605875
-8.41072e-07
0.000189251
0.0284429
-2.68831e-10
-1.63383e-06
0.000209627
0.0313899
-1.18912e-06
0.000227361
0.0338687
-6.35739e-07
0.000241283
0.0356617
-1.8167e-09
0.000248711
0.0366029
6.3211e-07
0.000248711
0.0366029
1.18563e-06
0.000241283
0.0356617
1.63044e-06
0.000227362
0.0338687
8.37802e-07
0.000209628
0.0313899
0.000189252
0.0284429
-3.07441e-09
1.83897e-06
0.000739049
0.076532
-6.12734e-10
1.95438e-06
0.000818401
0.0844885
2.11633e-06
0.000887132
0.0911605
1.38458e-06
0.000939144
0.0959748
-6.24141e-09
0.000966909
0.0984982
-1.39692e-06
0.00096691
0.0984982
-2.1281e-06
0.000939146
0.0959748
-1.96516e-06
0.000887135
0.0911605
-1.84866e-06
0.000818404
0.0844885
0.000739053
0.0765319
-9.30052e-09
9.9432e-06
0.00151993
0.113755
-1.00422e-09
1.39525e-05
0.00167992
0.125759
1.32441e-05
0.00181782
0.135785
8.02051e-06
0.00192035
0.143
-1.11737e-08
0.0019749
0.146776
-8.04249e-06
0.0019749
0.146776
-1.32649e-05
0.00192035
0.143
-1.39716e-05
0.00181783
0.135785
-9.96009e-06
0.00167992
0.125759
0.00151994
0.113755
-1.55082e-08
2.41221e-05
0.0023642
0.140831
-1.42399e-09
3.51353e-05
0.00260451
0.156009
3.30894e-05
0.00281031
0.168623
1.98473e-05
0.00296126
0.177674
-1.64093e-08
0.00304117
0.182402
-1.98795e-05
0.00304118
0.182402
-3.31197e-05
0.00296126
0.177674
-3.51626e-05
0.00281032
0.168623
-2.41458e-05
0.00260452
0.156009
0.00236421
0.140831
-2.13865e-08
4.44461e-05
0.00311152
0.158503
-1.90187e-09
6.52637e-05
0.0034126
0.176068
6.13698e-05
0.00366804
0.190586
3.66975e-05
0.00385302
0.200967
-2.17935e-08
0.00395037
0.206379
-3.67402e-05
0.00395038
0.206379
-6.14096e-05
0.00385303
0.200967
-6.52992e-05
0.00366805
0.190586
-4.44765e-05
0.00341261
0.176068
0.00311153
0.158503
-2.68155e-08
7.03545e-05
0.00363505
0.167536
-2.46346e-09
0.000103265
0.00396505
0.186797
9.69795e-05
0.00424152
0.202617
5.789e-05
0.00443908
0.213886
-2.71481e-08
0.00454234
0.219747
-5.7943e-05
0.00454234
0.219747
-9.70287e-05
0.00443909
0.213886
-0.000103308
0.00424153
0.202617
-7.0391e-05
0.00396507
0.186797
0.00363507
0.167536
-3.16439e-08
0.000100659
0.00385729
0.168714
-3.16784e-09
0.000147352
0.0041804
0.189072
0.000138168
0.00444676
0.205682
8.23508e-05
0.00463443
0.217461
-3.22766e-08
0.00473173
0.223572
-8.24137e-05
0.00473173
0.223572
-0.000138226
0.00463444
0.217461
-0.000147403
0.00444678
0.205682
-0.000100701
0.00418042
0.189072
0.00385731
0.168714
-3.57416e-08
0.000134074
0.00375547
0.162832
-3.98985e-09
0.000195689
0.00403957
0.183787
0.00018303
0.00426942
0.200764
0.000108865
0.00442886
0.212743
-3.69057e-08
0.00451079
0.218937
-0.000108937
0.00451079
0.218937
-0.000183095
0.00442887
0.212743
-0.000195746
0.00426943
0.200764
-0.00013412
0.00403958
0.183787
0.00375549
0.162831
-3.89521e-08
0.000170343
0.00335779
0.150679
-4.92921e-09
0.000246859
0.00358119
0.17185
0.000229666
0.00375764
0.188863
0.000136153
0.00387797
0.200791
-4.06715e-08
0.00393923
0.206934
-0.000136232
0.00393923
0.206934
-0.000229738
0.00387798
0.20079
-0.00024692
0.00375765
0.188863
-0.000170392
0.0035812
0.17185
0.0033578
0.150679
-4.12053e-08
0.000204955
0.133056
-5.81748e-09
0.0027379
0.000296016
0.154219
0.00288648
0.000274869
0.171
0.00300409
0.000162636
0.182673
0.00308471
-4.304e-08
0.188657
0.00312566
-0.00016272
0.188657
0.00312566
-0.000274944
0.182673
0.00308471
-0.00029608
0.171
0.00300409
-0.000205005
0.154219
0.00288649
0.133056
-4.20878e-08
0.00273791
-1.37626e-06
7.69374e-05
0.0283673
-2.07017e-10
-1.98147e-06
8.44682e-05
0.031306
-1.59163e-06
9.09149e-05
0.0337774
-8.78614e-07
9.59363e-05
0.0355651
-1.34205e-09
9.85894e-05
0.0365034
8.75951e-07
9.85895e-05
0.0365034
1.58905e-06
9.59367e-05
0.0355651
1.97899e-06
9.09155e-05
0.0337774
1.37385e-06
8.4469e-05
0.031306
7.6938e-05
0.0283673
-2.28934e-09
-1.62282e-06
0.000289835
0.0763207
-5.09847e-10
-2.44156e-06
0.000320159
0.0842536
-1.95812e-06
0.000346364
0.0909046
-1.04107e-06
0.000366241
0.0957036
-4.64006e-09
0.000376841
0.0982189
1.03191e-06
0.000376842
0.0982189
1.94936e-06
0.000366242
0.0957036
2.43335e-06
0.000346366
0.0909046
1.61515e-06
0.000320161
0.0842536
0.000289837
0.0763207
-7.0055e-09
8.34004e-07
0.000597181
0.113447
-8.24934e-10
1.08847e-06
0.000660673
0.125419
1.29487e-06
0.000715421
0.135416
9.08954e-07
0.000756336
0.142611
-8.33637e-09
0.000778155
0.146376
-9.25342e-07
0.000778156
0.146376
-1.31041e-06
0.000756338
0.14261
-1.10252e-06
0.000715425
0.135416
-8.45854e-07
0.000660677
0.125419
0.000597186
0.113447
-1.15814e-08
5.95349e-06
0.000940832
0.140482
-1.1803e-09
8.80066e-06
0.00103938
0.155627
8.52827e-06
0.00112403
0.168214
5.22124e-06
0.00118652
0.177247
-1.22835e-08
0.00121972
0.181966
-5.24533e-06
0.00121972
0.181966
-8.55096e-06
0.00118652
0.177247
-8.82121e-06
0.00112404
0.168214
-5.97149e-06
0.00103939
0.155627
0.00094084
0.140482
-1.62162e-08
1.39911e-05
0.00125765
0.158172
-1.57317e-09
2.07419e-05
0.00138491
0.175716
1.9743e-05
0.00149335
0.190217
1.19069e-05
0.00157243
0.200589
-1.63582e-08
0.00161421
0.205997
-1.19389e-05
0.00161422
0.205997
-1.9773e-05
0.00157243
0.200589
-2.07688e-05
0.00149335
0.190217
-1.40141e-05
0.00138492
0.175716
0.00125766
0.158172
-2.04798e-08
2.47095e-05
0.00149268
0.167276
-2.01654e-09
3.6544e-05
0.0016361
0.186534
3.4582e-05
0.00175689
0.202355
2.07486e-05
0.00184385
0.213628
-2.04189e-08
0.0018895
0.219493
-2.07884e-05
0.0018895
0.219493
-3.46191e-05
0.00184386
0.213628
-3.65768e-05
0.0017569
0.202355
-2.47372e-05
0.00163611
0.186533
0.00149269
0.167276
-2.42768e-08
3.76713e-05
0.00160793
0.168562
-2.55122e-09
5.55288e-05
0.00175207
0.188938
5.23743e-05
0.00187161
0.205571
3.1332e-05
0.00195648
0.21737
-2.43147e-08
0.00200067
0.223492
-3.13794e-05
0.00200067
0.223492
-5.24182e-05
0.00195648
0.21737
-5.55672e-05
0.00187162
0.20557
-3.77032e-05
0.00175208
0.188938
0.00160794
0.168561
-2.75355e-08
5.23976e-05
0.00158713
0.1628
-3.16783e-09
7.69657e-05
0.00171709
0.183798
7.23325e-05
0.00182293
0.200818
4.31474e-05
0.00189689
0.212832
-2.78436e-08
0.00193505
0.219046
-4.32016e-05
0.00193505
0.219046
-7.23823e-05
0.0018969
0.212831
-7.7009e-05
0.00182294
0.200818
-5.24328e-05
0.0017171
0.183798
0.00158714
0.1628
-3.01409e-08
6.88598e-05
0.00143616
0.150761
-3.87175e-09
0.000100279
0.00154104
0.171995
9.36384e-05
0.00162437
0.189068
5.56354e-05
0.00168157
0.201044
-3.07452e-08
0.00171078
0.207214
-5.56951e-05
0.00171078
0.207214
-9.36931e-05
0.00168157
0.201044
-0.000100326
0.00162438
0.189068
-6.88974e-05
0.00154105
0.171995
0.00143617
0.150761
-3.20359e-08
8.48936e-05
0.133224
-4.52896e-09
0.00118261
0.000123239
0.154467
0.00125427
0.000114869
0.171321
0.00131123
6.81183e-05
0.183051
0.00135043
-3.26488e-08
0.189066
0.00137039
-6.81816e-05
0.189066
0.00137039
-0.000114927
0.183051
0.00135043
-0.000123288
0.171321
0.00131123
-8.49326e-05
0.154467
0.00125428
0.133224
-3.29335e-08
0.00118262
-3.95724e-07
1.99148e-05
0.0283478
-1.48426e-10
-6.09145e-07
2.20604e-05
0.0312842
-4.88892e-07
2.40216e-05
0.0337533
-2.71403e-07
2.56355e-05
0.0355392
-9.53465e-10
2.65059e-05
0.0364766
2.6951e-07
2.6506e-05
0.0364766
4.87059e-07
2.56357e-05
0.0355392
6.07375e-07
2.4022e-05
0.0337533
3.9401e-07
2.20609e-05
0.0312842
1.99152e-05
0.0283478
-1.62473e-09
-5.13318e-07
8.95293e-05
0.0762516
-3.76938e-10
-8.71785e-07
9.96728e-05
0.0841764
-7.27898e-07
0.000108705
0.0908198
-3.99024e-07
0.000115735
0.0956131
-3.31193e-09
0.000119528
0.0981255
3.92487e-07
0.000119528
0.0981255
7.21645e-07
0.000115735
0.0956131
8.65903e-07
0.000108706
0.0908197
5.07797e-07
9.96747e-05
0.0841763
8.95308e-05
0.0762516
-5.02085e-09
3.31572e-07
0.000199164
0.113337
-6.1977e-10
2.96363e-07
0.000221912
0.125296
3.29636e-07
0.000241893
0.135282
2.30694e-07
0.000257093
0.142469
-5.97466e-09
0.000265271
0.14623
-2.42441e-07
0.000265271
0.14623
-3.40792e-07
0.000257095
0.142469
-3.0644e-07
0.000241896
0.135282
-3.40073e-07
0.000221915
0.125296
0.000199168
0.113337
-8.35119e-09
2.22353e-06
0.000328676
0.14035
-8.95789e-10
3.13161e-06
0.000365587
0.155482
2.97922e-06
0.000397742
0.168059
1.80738e-06
0.000421821
0.177083
-8.82939e-09
0.000434709
0.181798
-1.82471e-06
0.00043471
0.181798
-2.99556e-06
0.000421823
0.177083
-3.14646e-06
0.000397746
0.168059
-2.23653e-06
0.000365591
0.155482
0.000328682
0.14035
-1.17723e-08
5.32603e-06
0.000454134
0.158041
-1.19552e-09
7.75547e-06
0.000503435
0.175576
7.32501e-06
0.000545957
0.19007
4.39941e-06
0.000577363
0.200436
-1.17872e-08
0.000594071
0.205842
-4.42249e-06
0.000594072
0.205842
-7.34665e-06
0.000577367
0.200436
-7.77491e-06
0.000545962
0.19007
-5.34278e-06
0.000503441
0.175576
0.000454141
0.158041
-1.49598e-08
9.59544e-06
0.000552999
0.167168
-1.52801e-09
1.4094e-05
0.000610128
0.186422
1.32943e-05
0.000658781
0.202243
7.96166e-06
0.000694221
0.213516
-1.47418e-08
0.000712939
0.219382
-7.99047e-06
0.00071294
0.219382
-1.33212e-05
0.000694225
0.213516
-1.41179e-05
0.000658787
0.202243
-9.61567e-06
0.000610135
0.186422
0.000553007
0.167168
-1.78344e-08
1.48916e-05
0.000608216
0.168491
-1.91926e-09
2.19136e-05
0.000667021
0.188874
2.06487e-05
0.000716312
0.205514
1.23446e-05
0.000751686
0.21732
-1.75864e-08
0.000770212
0.223447
-1.23789e-05
0.000770214
0.223447
-2.06805e-05
0.00075169
0.21732
-2.19416e-05
0.000716319
0.205514
-1.4915e-05
0.000667028
0.188874
0.000608224
0.168491
-2.03439e-08
2.10327e-05
0.00061085
0.162776
-2.35899e-09
3.09081e-05
0.00066505
0.18379
2.90499e-05
0.000709616
0.200826
1.73278e-05
0.000741052
0.212854
-2.01818e-08
0.000757349
0.219076
-1.73671e-05
0.000757351
0.219076
-2.90862e-05
0.000741056
0.212854
-3.09398e-05
0.000709622
0.200826
-2.10587e-05
0.000665057
0.18379
0.000610858
0.162776
-2.24052e-08
2.79446e-05
0.000561031
0.150783
-2.84204e-09
4.07341e-05