/*--------------------------------*- C++ -*----------------------------------*\
| =========                 |                                                 |
| \\      /  F ield         | OpenFOAM: The Open Source CFD Toolbox           |
|  \\    /   O peration     | Version:  2106                                  |
|   \\  /    A nd           | Website:  www.openfoam.com                      |
|    \\/     M anipulation  |                                                 |
\*---------------------------------------------------------------------------*/
FoamFile
{
    version     2.0;
    format      ascii;
    arch        "LSB;label=32;scalar=64";
    class       surfaceScalarField;
    location    "0.76";
    object      phi;
}
// * * * * * * * * * * * * * * * * * * * * * * * * * * * * * * * * * * * * * //

dimensions      [0 3 -1 0 0 0 0];

oriented        oriented;

internalField   nonuniform List<scalar> 
29100
(
0.00118092
0.1504
0.0809186
4.07781e-11
0.00145317
0.155278
0.0889245
0.00124704
0.158697
0.0956123
0.0007102
0.160975
0.100399
-1.60449e-09
0.162118
0.102892
-0.000710203
0.162118
0.102892
-0.00124704
0.160975
0.100399
-0.00145317
0.158697
0.0956123
-0.00118092
0.155278
0.0889245
0.1504
0.0809186
-1.93285e-09
0.00236444
0.208251
0.155452
4.88541e-11
0.00328431
0.212836
0.168976
0.00292935
0.215908
0.180033
0.0016946
0.217825
0.187853
-4.42378e-09
0.218765
0.191894
-0.00169461
0.218765
0.191894
-0.00292936
0.217825
0.187853
-0.00328432
0.215908
0.180033
-0.00236445
0.212836
0.168976
0.208251
0.155452
-5.35463e-09
0.00301634
0.219395
0.184676
2.17982e-11
0.00426639
0.222321
0.199699
0.00382976
0.224228
0.211792
0.00221816
0.225269
0.220268
-7.20746e-09
0.225752
0.224624
-0.00221817
0.225752
0.224624
-0.00382977
0.225269
0.220268
-0.00426641
0.224228
0.211792
-0.00301635
0.222321
0.199699
0.219395
0.184676
-8.54308e-09
0.00344516
0.206177
0.191776
-2.84911e-11
0.00480662
0.207436
0.206937
0.00430567
0.208204
0.218987
0.00248936
0.208443
0.227373
-1.00394e-08
0.208515
0.231665
-0.00248938
0.208515
0.231665
-0.00430569
0.208443
0.227373
-0.00480663
0.208204
0.218987
-0.00344518
0.207436
0.206937
0.206177
0.191776
-1.14995e-08
0.00367453
0.181265
0.186409
-1.12209e-10
0.00505738
0.181242
0.201205
0.00451804
0.181143
0.212848
0.00260874
0.180814
0.220902
-1.29614e-08
0.180598
0.225011
-0.00260877
0.180598
0.225011
-0.00451807
0.180814
0.220902
-0.0050574
0.181143
0.212848
-0.00367455
0.181241
0.201205
0.181265
0.186409
-1.4275e-08
0.00375952
0.151937
0.173908
-2.30609e-10
0.0051234
0.151063
0.188188
0.00456756
0.150399
0.199333
0.00263585
0.149737
0.207003
-1.59748e-08
0.14936
0.210906
-0.00263588
0.14936
0.210906
-0.00456759
0.149737
0.207003
-0.00512343
0.150399
0.199333
-0.00375955
0.151063
0.188188
0.151937
0.173908
-1.68571e-08
0.00376763
0.122273
0.157405
-3.97399e-10
0.00509849
0.120917
0.171167
0.00453849
0.119941
0.181838
0.00261892
0.119135
0.189148
-1.90646e-08
0.118699
0.192859
-0.00261895
0.118699
0.192859
-0.00453852
0.119135
0.189148
-0.00509852
0.119941
0.181838
-0.00376766
0.120917
0.171167
0.122273
0.157405
-1.92301e-08
0.00373341
0.0944869
0.138728
-6.30874e-10
0.00504483
0.0929088
0.152029
0.00449058
0.091815
0.162286
0.00259246
0.0910104
0.16928
-2.20595e-08
0.0905942
0.172822
-0.0025925
0.0905942
0.172822
-0.00449062
0.0910104
0.16928
-0.00504486
0.091815
0.162286
-0.00373343
0.0929088
0.152029
0.0944869
0.138728
-2.13059e-08
0.00370188
0.0696945
0.118934
-1.00251e-09
0.00502688
0.0680582
0.131837
0.00447603
0.0670188
0.141739
0.00258326
0.066331
0.148461
-2.4653e-08
0.0659906
0.151858
-0.00258331
0.0659906
0.151858
-0.00447607
0.066331
0.148461
-0.00502692
0.0670188
0.141739
-0.00370191
0.0680582
0.131837
0.0696945
0.118934
-2.29491e-08
0.00392224
0.0986239
-1.38407e-09
0.0481602
0.0052167
0.111189
0.0468656
0.00458863
0.120781
0.0460436
0.00262832
0.127266
0.0455464
-2.65364e-08
0.130534
0.0453026
-0.00262837
0.130534
0.0453026
-0.00458868
0.127266
0.0455464
-0.00521674
0.120781
0.0460436
-0.00392227
0.111189
0.0468656
0.0986239
-2.40816e-08
0.0481602
-0.000240342
0.0365298
0.0446291
-1.79223e-10
-0.000242385
0.0397044
0.0492221
-0.000170351
0.042387
0.0531532
-8.48262e-05
0.0443054
0.0560083
-2.76787e-09
0.0452978
0.0575095
8.48208e-05
0.0452978
0.0575095
0.000170346
0.0443054
0.0560083
0.000242381
0.042387
0.0531532
0.000240338
0.0397044
0.0492221
0.0365298
0.0446291
-3.56363e-09
6.4988e-05
0.0807024
0.111215
-4.233e-10
0.000253394
0.0864937
0.121998
0.000302692
0.0913098
0.131061
0.000202729
0.0946844
0.137574
-8.44976e-09
0.0964178
0.140977
-0.000202746
0.0964178
0.140977
-0.000302708
0.0946844
0.137574
-0.000253408
0.0913098
0.131061
-6.50001e-05
0.0864937
0.121998
0.0807024
0.111215
-1.05429e-08
0.00061497
0.112214
0.15255
-5.58775e-10
0.0010334
0.118926
0.166849
0.00101106
0.124434
0.178689
0.000617899
0.12822
0.187126
-1.42578e-08
0.130149
0.191511
-0.000617927
0.130149
0.191511
-0.00101109
0.12822
0.187126
-0.00103342
0.124434
0.178689
-0.00061499
0.118926
0.166849
0.112214
0.15255
-1.72926e-08
0.00123443
0.128724
0.174031
-7.34139e-10
0.00187787
0.13512
0.190099
0.00176696
0.140303
0.20323
0.0010553
0.14379
0.212515
-2.01974e-08
0.145551
0.217319
-0.00105534
0.145551
0.217319
-0.001767
0.14379
0.212515
-0.00187791
0.140303
0.20323
-0.00123446
0.13512
0.190099
0.128724
0.174031
-2.36595e-08
0.00184026
0.131966
0.181327
-9.2218e-10
0.0026805
0.137356
0.198129
0.00247731
0.141656
0.211698
0.00146341
0.14448
0.221225
-2.62367e-08
0.145889
0.226136
-0.00146346
0.145889
0.226136
-0.00247735
0.14448
0.221225
-0.00268054
0.141656
0.211698
-0.0018403
0.137356
0.198129
0.131966
0.181327
-2.96076e-08
0.00238848
0.124967
0.178519
-1.20509e-09
0.00339466
0.12908
0.195458
0.00310491
0.132285
0.208994
0.00182278
0.13433
0.218436
-3.22868e-08
0.135334
0.223284
-0.00182285
0.135334
0.223284
-0.00310497
0.13433
0.218436
-0.00339471
0.132285
0.208994
-0.00238852
0.12908
0.195458
0.124967
0.178519
-3.50857e-08
0.00285595
0.11095
0.168565
-1.64282e-09
0.00400395
0.11378
0.185319
0.00364123
0.115905
0.198581
0.00213042
0.117212
0.207776
-3.8274e-08
0.117843
0.212481
-0.0021305
0.117843
0.212481
-0.0036413
0.117212
0.207776
-0.00400401
0.115905
0.198581
-0.002856
0.11378
0.185319
0.11095
0.168565
-4.00319e-08
0.00323685
0.0928294
0.153612
-2.17363e-09
0.00451799
0.0945049
0.170023
0.00409995
0.095702
0.182906
0.0023951
0.0964101
0.191787
-4.38862e-08
0.0967453
0.196315
-0.00239518
0.0967453
0.196315
-0.00410003
0.0964101
0.191787
-0.00451806
0.095702
0.182906
-0.00323691
0.0945049
0.170023
0.0928294
0.153612
-4.42932e-08
0.00356697
0.0730017
0.135195
-2.88709e-09
0.00498596
0.073715
0.151208
0.00451882
0.0742267
0.163681
0.00263561
0.0745257
0.172229
-4.87002e-08
0.0746672
0.176572
-0.00263571
0.0746672
0.176572
-0.00451891
0.0745257
0.172229
-0.00498603
0.0742267
0.163681
-0.00356703
0.073715
0.151208
0.0730017
0.135195
-4.75855e-08
0.00399335
0.114406
-3.81391e-09
0.0532264
0.00553207
0.13003
0.0533353
0.0049746
0.142093
0.053472
0.00288535
0.150311
0.0535697
-5.22187e-08
0.154472
0.0536152
-0.00288546
0.154472
0.0536152
-0.00497469
0.150311
0.0535697
-0.00553215
0.142093
0.053472
-0.00399341
0.13003
0.0533354
0.114406
-4.96481e-08
0.0532264
3.93046e-05
0.00999758
0.0345922
-3.2135e-10
3.52769e-05
0.0110316
0.0381945
2.97292e-05
0.0119092
0.0412496
1.64774e-05
0.0125607
0.0434608
-3.03211e-09
0.012904
0.044622
-1.64834e-05
0.012904
0.044622
-2.97349e-05
0.0125607
0.0434608
-3.5282e-05
0.0119092
0.0412496
-3.93092e-05
0.0110316
0.0381945
0.00999759
0.0345922
-4.16644e-09
0.000281534
0.0303161
0.0906148
-5.78204e-10
0.000382363
0.0330271
0.099902
0.000341757
0.0352957
0.107715
0.000199361
0.0369319
0.113346
-9.73713e-09
0.0377867
0.116293
-0.000199381
0.0377867
0.116293
-0.000341775
0.0369319
0.113346
-0.000382379
0.0352957
0.107715
-0.000281548
0.0330271
0.099902
0.0303161
0.0906148
-1.25861e-08
0.000601321
0.051236
0.131029
-8.72359e-10
0.000853284
0.055241
0.144383
0.000773078
0.0585482
0.155517
0.000453137
0.0608806
0.163497
-1.68444e-08
0.0620889
0.167662
-0.00045317
0.0620889
0.167662
-0.000773109
0.0608806
0.163497
-0.000853312
0.0585483
0.155517
-0.000601345
0.055241
0.144383
0.051236
0.131029
-2.08262e-08
0.000968938
0.0670578
0.157241
-1.15129e-09
0.00139061
0.0716403
0.173278
0.00127016
0.0753786
0.18652
0.000745957
0.0779638
0.195956
-2.41878e-08
0.0792909
0.200863
-0.000746004
0.0792909
0.200863
-0.00127021
0.0779638
0.195956
-0.00139065
0.0753787
0.18652
-0.000968972
0.0716403
0.173278
0.0670578
0.157241
-2.86304e-08
0.00135927
0.0757835
0.171243
-1.48232e-09
0.00194707
0.0802839
0.188897
0.00178286
0.0839069
0.203334
0.00104733
0.0863645
0.21356
-3.16423e-08
0.0876135
0.21886
-0.00104739
0.0876135
0.21886
-0.00178292
0.0863645
0.21356
-0.00194712
0.0839069
0.203333
-0.00135932
0.0802839
0.188897
0.0757835
0.171242
-3.58877e-08
0.00175192
0.0774284
0.175122
-1.89568e-09
0.00249255
0.081379
0.193622
0.00228133
0.0845051
0.208607
0.00133941
0.0865831
0.21916
-3.90244e-08
0.0876276
0.22461
-0.00133948
0.0876276
0.22461
-0.0022814
0.0865831
0.21916
-0.00249261
0.0845051
0.208607
-0.00175197
0.081379
0.193622
0.0774284
0.175122
-4.24891e-08
0.00212356
0.0730639
0.170806
-2.44498e-09
0.00300279
0.0762016
0.189617
0.00274559
0.0786272
0.204716
0.00161106
0.0802061
0.215288
-4.61809e-08
0.0809908
0.220729
-0.00161115
0.0809908
0.220729
-0.00274568
0.0802061
0.215288
-0.00300286
0.0786273
0.204716
-0.00212362
0.0762016
0.189617
0.0730639
0.170806
-4.8325e-08
0.00245807
0.064242
0.159976
-3.1651e-09
0.00346772
0.0664691
0.178746
0.00316903
0.0681477
0.193685
0.00185863
0.0692208
0.204083
-5.26918e-08
0.0697493
0.209415
-0.00185874
0.0697493
0.209415
-0.00316913
0.0692208
0.204083
-0.0034678
0.0681478
0.193685
-0.00245814
0.0664691
0.178746
0.064242
0.159976
-5.31976e-08
0.00276797
0.0526245
0.144045
-4.21843e-09
0.00390319
0.0539753
0.162567
0.00356131
0.0549874
0.177183
0.00208576
0.055632
0.187293
-5.80903e-08
0.055949
0.192458
-0.00208587
0.055949
0.192458
-0.00356141
0.055632
0.187293
-0.00390328
0.0549874
0.177183
-0.00276804
0.0539753
0.162567
0.0526245
0.144045
-5.67986e-08
0.00311129
0.12418
-5.53373e-09
0.0397388
0.00435285
0.142371
0.0403928
0.00394907
0.156568
0.0409168
0.0023035
0.16632
0.0412687
-6.17753e-08
0.171282
0.0414426
-0.00230362
0.171282
0.0414426
-0.00394918
0.16632
0.0412687
-0.00435294
0.156568
0.0409168
-0.00311136
0.142371
0.0403928
0.12418
-5.88037e-08
0.0397388
-3.16234e-05
0.00408415
0.0305397
-2.9764e-10
-4.51589e-05
0.00449741
0.0337106
-3.63989e-05
0.00484809
0.0363927
-2.00633e-05
0.00510883
0.0383356
-2.85702e-09
0.00524543
0.0393565
2.00577e-05
0.00524543
0.0393565
3.63936e-05
0.00510883
0.0383356
4.51539e-05
0.00484809
0.0363927
3.16188e-05
0.00449741
0.0337106
0.00408415
0.0305397
-4.08728e-09
1.02128e-05
0.0126832
0.0820056
-5.37063e-10
1.76066e-05
0.013898
0.0904941
2.20153e-05
0.0149274
0.0976318
1.56839e-05
0.0156777
0.102783
-9.4617e-09
0.0160711
0.105483
-1.57025e-05
0.0160711
0.105483
-2.20327e-05
0.0156777
0.102783
-1.7622e-05
0.0149274
0.0976318
-1.0226e-05
0.013898
0.090494
0.0126832
0.0820056
-1.24239e-08
0.000123998
0.022579
0.121009
-8.73211e-10
0.000188027
0.0245968
0.13362
0.000180556
0.0262954
0.144157
0.000109997
0.0275147
0.151731
-1.66276e-08
0.0281513
0.155692
-0.000110029
0.0281513
0.155692
-0.000180587
0.0275147
0.151731
-0.000188055
0.0262954
0.144157
-0.000124021
0.0245968
0.13362
0.022579
0.121009
-2.0874e-08
0.000295102
0.0313085
0.148216
-1.25688e-09
0.00044002
0.0338791
0.163851
0.00041481
0.036022
0.176818
0.000248706
0.0375377
0.186099
-2.41149e-08
0.0383242
0.190939
-0.000248753
0.0383242
0.190939
-0.000414854
0.0375377
0.186099
-0.00044006
0.036022
0.176818
-0.000295136
0.0338791
0.163851
0.0313085
0.148216
-2.885e-08
0.00050787
0.0373462
0.164697
-1.67976e-09
0.000746534
0.0401278
0.18241
0.000698307
0.0424171
0.196987
0.000415975
0.0440117
0.207369
-3.17266e-08
0.0448329
0.212768
-0.000416037
0.0448329
0.212768
-0.000698365
0.0440117
0.207369
-0.000746585
0.0424171
0.196987
-0.000507912
0.0401278
0.18241
0.0373463
0.164697
-3.62318e-08
0.000746228
0.0400379
0.171684
-2.21352e-09
0.00108346
0.0427084
0.190704
0.00100801
0.0448691
0.20623
0.000598154
0.0463499
0.217231
-3.92285e-08
0.0471059
0.222935
-0.00059823
0.0471059
0.222935
-0.00100808
0.0463499
0.217231
-0.00108352
0.0448691
0.20623
-0.000746279
0.0427085
0.190704
0.040038
0.171684
-4.29002e-08
0.000992847
0.0394008
0.170451
-2.96019e-09
0.00142902
0.0417143
0.190175
0.00132458
0.0435456
0.206144
0.000784035
0.0447795
0.217399
-4.64542e-08
0.0454038
0.223215
-0.000784125
0.0454038
0.223215
-0.00132466
0.0447795
0.217399
-0.00142909
0.0435456
0.206144
-0.000992906
0.0417143
0.190175
0.0394008
0.170451
-4.87091e-08
0.00123471
0.0359128
0.162229
-3.86971e-09
0.00176981
0.0377172
0.182208
0.00163622
0.0391123
0.198252
0.000966587
0.0400377
0.209494
-5.29333e-08
0.0405021
0.215283
-0.00096669
0.0405021
0.215283
-0.00163631
0.0400377
0.209494
-0.00176989
0.0391123
0.198252
-0.00123477
0.0377172
0.182208
0.0359128
0.162229
-5.34286e-08
0.00147596
0.0303176
0.148164
-5.01301e-09
0.00210819
0.0315607
0.168091
0.00194147
0.0325067
0.183956
0.00114366
0.0331284
0.195
-5.81675e-08
0.0334389
0.200665
-0.00114377
0.0334389
0.200665
-0.00194158
0.0331285
0.195
-0.00210828
0.0325067
0.183956
-0.00147603
0.0315607
0.168091
0.0303177
0.148164
-5.67538e-08
0.00173112
0.129295
-6.34552e-09
0.0234719
0.00245452
0.149018
0.0241904
0.00224753
0.164525
0.024756
0.00131833
0.175241
0.0251368
-6.15824e-08
0.180712
0.0253271
-0.00131845
0.180712
0.0253271
-0.00224764
0.175241
0.0251368
-0.00245461
0.164525
0.024756
-0.00173119
0.149018
0.0241904
0.129295
-5.84058e-08
0.0234719
2.11171e-06
0.00133644
0.0292012
-3.27791e-10
-2.68369e-07
0.00148396
0.0322291
1.3208e-07
0.00161225
0.0347801
1.45567e-07
0.00171019
0.0366254
-2.46411e-09
0.00176241
0.0375943
-1.50445e-07
0.00176241
0.0375943
-1.36742e-07
0.00171019
0.0366254
2.64041e-07
0.00161225
0.0347801
-2.11557e-06
0.00148396
0.032229
0.00133644
0.0292011
-3.71697e-09
3.09238e-05
0.00479559
0.0785155
-6.15036e-10
3.99861e-05
0.00529307
0.0866759
3.68308e-05
0.00572047
0.0935267
2.18464e-05
0.00603799
0.0984702
-8.3281e-09
0.00620623
0.101061
-2.18628e-05
0.00620623
0.101061
-3.68463e-05
0.00603799
0.0984702
-4.00003e-05
0.00572048
0.0935267
-3.09364e-05
0.00529308
0.0866759
0.0047956
0.0785155
-1.14401e-08
8.62802e-05
0.00925322
0.116465
-9.55691e-10
0.000122301
0.0101567
0.128721
0.000112891
0.0109261
0.13896
6.70066e-05
0.0114874
0.146327
-1.48157e-08
0.0117832
0.150182
-6.70357e-05
0.0117832
0.150182
-0.000112919
0.0114874
0.146327
-0.000122326
0.0109261
0.13896
-8.63016e-05
0.0101567
0.12872
0.00925323
0.116465
-1.90803e-08
0.000167936
0.0135988
0.143703
-1.34566e-09
0.000243856
0.0148383
0.159093
0.000226485
0.0158838
0.171878
0.000134503
0.0166352
0.181043
-2.16682e-08
0.0170287
0.185828
-0.000134545
0.0170287
0.185828
-0.000226525
0.0166352
0.181043
-0.000243892
0.0158838
0.171878
-0.000167966
0.0148383
0.159093
0.0135988
0.143702
-2.63565e-08
0.000272926
0.0169975
0.161025
-1.82034e-09
0.000397812
0.0184281
0.178695
0.000370231
0.0196209
0.193277
0.000219817
0.0204659
0.203688
-2.86685e-08
0.0209052
0.209111
-0.000219872
0.0209053
0.209111
-0.000370283
0.0204659
0.203688
-0.000397858
0.019621
0.193277
-0.000272965
0.0184282
0.178695
0.0169975
0.161025
-3.3114e-08
0.00039586
0.0189495
0.169336
-2.40042e-09
0.000575148
0.0204042
0.188549
0.00053508
0.0215991
0.204292
0.000317444
0.022433
0.215482
-3.55663e-08
0.0228631
0.221295
-0.000317513
0.0228631
0.221295
-0.000535144
0.022433
0.215482
-0.000575204
0.0215991
0.204292
-0.000395906
0.0204042
0.188549
0.0189495
0.169336
-3.92073e-08
0.000529237
0.0192789
0.169592
-3.14336e-09
0.000765588
0.0206071
0.189736
0.000711416
0.0216778
0.206119
0.000421637
0.0224136
0.217708
-4.21914e-08
0.02279
0.22371
-0.000421719
0.02279
0.22371
-0.000711492
0.0224136
0.217708
-0.000765654
0.0216778
0.206119
-0.00052929
0.0206071
0.189736
0.0192789
0.169592
-4.44866e-08
0.0006663
0.0180803
0.162762
-4.04208e-09
0.000961002
0.0191709
0.18335
0.000891453
0.0200324
0.199967
0.000527593
0.0206156
0.211656
-4.80934e-08
0.0209113
0.21769
-0.000527686
0.0209113
0.21769
-0.000891538
0.0206156
0.211656
-0.000961076
0.0200324
0.199966
-0.000666359
0.0191709
0.183349
0.0180803
0.162762
-4.8741e-08
0.000807023
0.0156436
0.149793
-5.22341e-09
0.00115844
0.0164403
0.17047
0.00107033
0.0170576
0.187019
0.00063178
0.0174701
0.198585
-5.28158e-08
0.0176778
0.204531
-0.000631883
0.0176778
0.20453
-0.00107043
0.0174701
0.198584
-0.00115852
0.0170576
0.187019
-0.000807086
0.0164403
0.17047
0.0156436
0.149793
-5.16946e-08
0.000946051
0.131605
-6.57979e-09
0.012387
0.00135011
0.152176
0.0128785
0.00124271
0.168426
0.0132646
0.000731355
0.179696
0.0135265
-5.58181e-08
0.185463
0.0136584
-0.000731463
0.185463
0.0136584
-0.0012428
0.179695
0.0135265
-0.00135019
0.168426
0.0132646
-0.000946116
0.152176
0.0128785
0.131605
-5.30893e-08
0.012387
-5.57505e-06
0.0005832
0.0286235
-3.19374e-10
-8.31074e-06
0.000641586
0.0315902
-6.58329e-06
0.000690979
0.0340874
-3.62766e-06
0.000728527
0.035894
-1.96245e-09
0.000748263
0.0368424
3.62359e-06
0.000748264
0.0368424
6.57946e-06
0.000728528
0.035894
8.30729e-06
0.00069098
0.0340874
5.57167e-06
0.000641587
0.0315902
0.000583201
0.0286235
-3.18122e-09
-8.5706e-07
0.00203196
0.0770676
-6.74715e-10
-1.88836e-06
0.00223852
0.08508
-6.20026e-07
0.00241453
0.0918019
1.74072e-07
0.00254538
0.0966526
-6.71697e-09
0.0026147
0.0991952
-1.86405e-07
0.0026147
0.0991952
6.07503e-07
0.00254538
0.0966525
1.8757e-06
0.00241454
0.0918019
8.46464e-07
0.00223852
0.08508
0.00203197
0.0770676
-9.73458e-09
1.77577e-05
0.00395235
0.114527
-1.05174e-09
2.62696e-05
0.00434661
0.126604
2.5764e-05
0.00468261
0.136693
1.59199e-05
0.00492915
0.143953
-1.22696e-08
0.00505944
0.147753
-1.59442e-05
0.00505944
0.147753
-2.57867e-05
0.00492915
0.143953
-2.629e-05
0.00468262
0.136693
-1.77757e-05
0.00434662
0.126604
0.00395235
0.114527
-1.62535e-08
5.09323e-05
0.00592368
0.14168
-1.44477e-09
7.58183e-05
0.00649141
0.156923
7.21706e-05
0.0069727
0.169591
4.35669e-05
0.00732156
0.178679
-1.81073e-08
0.00750507
0.183426
-4.36024e-05
0.00750508
0.183426
-7.22037e-05
0.00732156
0.178679
-7.58479e-05
0.00697271
0.169591
-5.09578e-05
0.00649142
0.156923
0.00592369
0.14168
-2.24859e-08
9.74368e-05
0.00757405
0.159278
-1.87881e-09
0.00014433
0.00826
0.17688
0.000136284
0.00883611
0.191422
8.16941e-05
0.00924847
0.201816
-2.40736e-08
0.0094641
0.207234
-8.17411e-05
0.0094641
0.207234
-0.000136328
0.00924848
0.201816
-0.000144369
0.00883612
0.191422
-9.74694e-05
0.00826002
0.17688
0.00757406
0.159277
-2.82883e-08
0.000155129
0.00863782
0.168117
-2.40461e-09
0.000228186
0.00936583
0.18737
0.00021451
0.00996915
0.203173
0.000128126
0.0103952
0.214422
-2.99616e-08
0.0106165
0.22027
-0.000128184
0.0106165
0.22027
-0.000214564
0.0103952
0.214421
-0.000228233
0.00996917
0.203173
-0.000155169
0.00936585
0.18737
0.00863783
0.168117
-3.35286e-08
0.000220772
0.00897832
0.169031
-3.09979e-09
0.000322781
0.00967053
0.189329
0.000302468
0.0102344
0.205874
0.00018022
0.010627
0.217598
-3.56215e-08
0.0108292
0.223677
-0.00018029
0.0108292
0.223677
-0.000302532
0.010627
0.217598
-0.000322837
0.0102344
0.205874
-0.000220817
0.00967055
0.189329
0.00897833
0.169031
-3.80647e-08
0.000291327
0.00858549
0.162863
-3.92996e-09
0.00042416
0.00917724
0.18371
0.000396204
0.00965015
0.200579
0.000235492
0.00997449
0.212469
-4.06572e-08
0.0101401
0.218614
-0.00023557
0.0101401
0.218614
-0.000396276
0.0099745
0.212469
-0.000424222
0.00965016
0.200579
-0.000291377
0.00917726
0.18371
0.00858551
0.162863
-4.17041e-08
0.00036696
0.00755541
0.150457
-4.94394e-09
0.000530601
0.00800717
0.171476
0.000492884
0.00836077
0.188346
0.000291905
0.00859978
0.20016
-4.4679e-08
0.00872087
0.206242
-0.000291992
0.00872087
0.206242
-0.000492963
0.00859979
0.20016
-0.000530669
0.00836078
0.188346
-0.000367013
0.00800718
0.171476
0.00755543
0.150457
-4.42044e-08
0.000442799
0.13265
-6.06785e-09
0.00606805
0.000636495
0.153629
0.0063607
0.000588992
0.170242
0.00659177
0.000347755
0.181787
0.00674943
-4.72465e-08
0.187702
0.00682918
-0.000347846
0.187702
0.00682918
-0.000589075
0.181787
0.00674943
-0.000636565
0.170242
0.00659178
-0.000442855
0.153628
0.00636071
0.13265
-4.53455e-08
0.00606806
-8.42656e-07
0.00018979
0.0284346
-2.36105e-10
-1.63584e-06
0.000210222
0.0313808
-1.18975e-06
0.000228001
0.0338589
-6.35659e-07
0.000241958
0.0356514
-1.54408e-09
0.000249404
0.0365924
6.32583e-07
0.000249404
0.0365924
1.18679e-06
0.000241958
0.0356514
1.633e-06
0.000228002
0.0338589
8.3997e-07
0.000210223
0.0313808
0.000189791
0.0284346
-2.51929e-09
1.84786e-06
0.000740972
0.0765146
-5.0826e-10
1.96877e-06
0.000820525
0.0844695
2.132e-06
0.000889424
0.0911403
1.39501e-06
0.00094156
0.0959537
-5.35206e-09
0.00096939
0.0984766
-1.40558e-06
0.000969391
0.0984766
-2.14205e-06
0.000941561
0.0959537
-1.9779e-06
0.000889426
0.0911403
-1.85596e-06
0.000820528
0.0844695
0.000740975
0.0765145
-7.73854e-09
9.97657e-06
0.00152373
0.113734
-8.45235e-10
1.40044e-05
0.00168411
0.125736
1.32952e-05
0.00182235
0.13576
8.05255e-06
0.00192512
0.142975
-9.66841e-09
0.0019798
0.14675
-8.07155e-06
0.0019798
0.14675
-1.33131e-05
0.00192512
0.142975
-1.40207e-05
0.00182236
0.13576
-9.99084e-06
0.00168412
0.125736
0.00152374
0.113734
-1.30239e-08
2.41942e-05
0.00237001
0.14081
-1.22848e-09
3.52456e-05
0.00261092
0.155986
3.31959e-05
0.00281721
0.168599
1.99128e-05
0.00296852
0.177649
-1.43059e-08
0.00304863
0.182377
-1.99408e-05
0.00304863
0.182377
-3.32221e-05
0.00296852
0.177649
-3.52692e-05
0.00281722
0.168599
-2.42145e-05
0.00261092
0.155986
0.00237002
0.14081
-1.81061e-08
4.45713e-05
0.00311911
0.158484
-1.66377e-09
6.54527e-05
0.00342095
0.176049
6.15505e-05
0.00367702
0.190566
3.68075e-05
0.00386245
0.200947
-1.90967e-08
0.00396005
0.206359
-3.68448e-05
0.00396005
0.206359
-6.15852e-05
0.00386246
0.200947
-6.54836e-05
0.00367703
0.190566
-4.45974e-05
0.00342096
0.176049
0.00311913
0.158484
-2.28533e-08
7.05456e-05
0.00364394
0.167522
-2.16275e-09
0.000103551
0.00397478
0.186783
9.72508e-05
0.00425194
0.202604
5.80542e-05
0.00445001
0.213873
-2.38442e-08
0.00455352
0.219735
-5.81007e-05
0.00455353
0.219735
-9.72939e-05
0.00445002
0.213873
-0.000103589
0.00425196
0.202604
-7.05771e-05
0.00397479
0.186783
0.00364395
0.167522
-2.71551e-08
0.000100926
0.00386677
0.168707
-2.76497e-09
0.000147748
0.00419073
0.189066
0.000138543
0.00445779
0.205678
8.25763e-05
0.00464594
0.217458
-2.84183e-08
0.00474349
0.22357
-8.26316e-05
0.0047435
0.22357
-0.000138593
0.00464595
0.217458
-0.000147792
0.0044578
0.205678
-0.000100963
0.00419075
0.189066
0.00386679
0.168707
-3.08957e-08
0.000134425
0.00376478
0.162831
-3.4535e-09
0.000196205
0.00404965
0.183789
0.000183514
0.00428011
0.200769
0.000109156
0.00443999
0.21275
-3.25008e-08
0.00452213
0.218945
-0.000109219
0.00452213
0.218945
-0.000183572
0.00443999
0.21275
-0.000196255
0.00428013
0.200769
-0.000134465
0.00404966
0.183789
0.0037648
0.162831
-3.39212e-08
0.000170783
0.0033662
0.150684
-4.29157e-09
0.000247498
0.00359021
0.171859
0.000230263
0.00376715
0.188876
0.00013651
0.00388782
0.200806
-3.57859e-08
0.00394924
0.206951
-0.000136579
0.00394925
0.206951
-0.000230326
0.00388783
0.200806
-0.000247552
0.00376716
0.188876
-0.000170826
0.00359022
0.171859
0.00336621
0.150684
-3.60463e-08
0.00020547
0.133066
-5.19942e-09
0.00274483
0.000296764
0.154234
0.00289383
0.000275567
0.171019
0.00301177
0.000163053
0.182695
0.00309262
-3.79316e-08
0.188681
0.00313368
-0.000163126
0.188681
0.00313368
-0.000275634
0.182695
0.00309262
-0.000296821
0.171019
0.00301177
-0.000205515
0.154234
0.00289383
0.133066
-3.71323e-08
0.00274484
-1.37771e-06
7.72869e-05
0.0283587
-1.93254e-10
-1.98337e-06
8.48537e-05
0.0312965
-1.59251e-06
9.133e-05
0.0337672
-8.7882e-07
9.63741e-05
0.0355544
-1.13996e-09
9.90391e-05
0.0364924
8.76562e-07
9.90392e-05
0.0364924
1.59033e-06
9.63744e-05
0.0355544
1.98129e-06
9.13306e-05
0.0337672
1.37572e-06
8.48544e-05
0.0312965
7.72874e-05
0.0283587
-1.89111e-09
-1.61773e-06
0.000291093
0.0763024
-4.4799e-10
-2.43359e-06
0.000321549
0.0842337
-1.9493e-06
0.000347864
0.0908833
-1.03503e-06
0.000367823
0.0956813
-3.99705e-09
0.000378467
0.0981962
1.02716e-06
0.000378468
0.0981962
1.9418e-06
0.000367824
0.0956813
2.4266e-06
0.000347866
0.0908833
1.61128e-06
0.000321551
0.0842336
0.000291095
0.0763024
-5.87684e-09
8.53421e-07
0.000599685
0.113425
-7.27768e-10
1.11986e-06
0.000663439
0.125394
1.32633e-06
0.000718407
0.13539
9.28818e-07
0.000759485
0.142584
-7.25443e-09
0.00078139
0.146348
-9.43059e-07
0.000781391
0.146348
-1.33978e-06
0.000759487
0.142584
-1.13195e-06
0.000718411
0.13539
-8.63513e-07
0.000663443
0.125394
0.00059969
0.113425
-9.80945e-09
5.9995e-06
0.000944679
0.140459
-1.05013e-09
8.87083e-06
0.00104363
0.155603
8.59608e-06
0.00112861
0.168189
5.26303e-06
0.00119134
0.17722
-1.07818e-08
0.00122467
0.181939
-5.28415e-06
0.00122467
0.181939
-8.6159e-06
0.00119135
0.17722
-8.8887e-06
0.00112862
0.168189
-6.01495e-06
0.00104363
0.155602
0.000944686
0.140459
-1.38455e-08
1.40724e-05
0.00126271
0.158152
-1.40031e-09
2.08646e-05
0.00139047
0.175695
1.98603e-05
0.00149933
0.190196
1.19784e-05
0.00157872
0.200567
-1.44463e-08
0.00162067
0.205975
-1.20067e-05
0.00162067
0.205975
-1.98867e-05
0.00157873
0.200567
-2.08881e-05
0.00149934
0.190196
-1.40923e-05
0.00139048
0.175695
0.00126272
0.158152
-1.76015e-08
2.48351e-05
0.00149861
0.167261
-1.79574e-09
3.67317e-05
0.00164261
0.186519
3.47603e-05
0.00176387
0.202341
2.08566e-05
0.00185118
0.213615
-1.80948e-08
0.001897
0.21948
-2.08919e-05
0.001897
0.21948
-3.47931e-05
0.00185118
0.213615
-3.67606e-05
0.00176388
0.202341
-2.48592e-05
0.00164262
0.186519
0.00149862
0.167261
-2.10082e-08
3.78486e-05
0.00161429
0.168553
-2.27673e-09
5.57915e-05
0.00175901
0.188932
5.26228e-05
0.00187902
0.205566
3.14818e-05
0.00196422
0.217366
-2.16241e-08
0.00200859
0.22349
-3.15238e-05
0.00200859
0.22349
-5.26616e-05
0.00196423
0.217366
-5.58254e-05
0.00187903
0.205566
-3.78764e-05
0.00175902
0.188932
0.0016143
0.168553
-2.39955e-08
5.26317e-05
0.00159339
0.162799
-2.82341e-09
7.73102e-05
0.00172388
0.1838
7.26566e-05
0.00183014
0.200823
4.33419e-05
0.0019044
0.212839
-2.4793e-08
0.00194271
0.219054
-4.33901e-05
0.00194271
0.219054
-7.27008e-05
0.00190441
0.212839
-7.73485e-05
0.00183015
0.200823
-5.26627e-05
0.00172389
0.1838
0.0015934
0.162799
-2.64494e-08
6.91552e-05
0.00144183
0.150767
-3.45668e-09
0.000100709
0.00154714
0.172004
9.40396e-05
0.00163081
0.189082
5.5875e-05
0.00168824
0.20106
-2.73751e-08
0.00171757
0.207232
-5.59282e-05
0.00171757
0.207232
-9.40882e-05
0.00168824
0.20106
-0.000100751
0.00163082
0.189082
-6.91885e-05
0.00154715
0.172004
0.00144184
0.150767
-2.82307e-08
8.5241e-05
0.133235
-4.11031e-09
0.0011873
0.000123744
0.154483
0.00125925
0.000115341
0.171341
0.00131644
6.83997e-05
0.183074
0.0013558
-2.91282e-08
0.189091
0.00137584
-6.84562e-05
0.189091
0.00137584
-0.000115392
0.183074
0.0013558
-0.000123788
0.171341
0.00131644
-8.52758e-05
0.154483
0.00125925
0.133235
-2.92435e-08
0.00118731
-3.96835e-07
2.01161e-05
0.028339
-1.37875e-10
-6.10621e-07
2.22824e-05
0.0312745
-4.89702e-07
2.42607e-05
0.0337428
-2.71674e-07
2.58879e-05
0.0355283
-8.06816e-10
2.67653e-05
0.0364654
2.70072e-07
2.67653e-05
0.0364654
4.88152e-07
2.58881e-05
0.0355282
6.09135e-07
2.42611e-05
0.0337428
3.95413e-07
2.22829e-05
0.0312744
2.01165e-05
0.0283389
-1.354e-09
-5.11035e-07
9.02656e-05
0.0762327
-3.33155e-10
-8.68196e-07
0.000100487
0.0841558
-7.23658e-07
0.000109584
0.0907978
-3.95982e-07
0.000116663
0.0955902
-2.85562e-09
0.000120482
0.0981021
3.90349e-07
0.000120483
0.0981021
7.18286e-07
0.000116664
0.0955902
8.63163e-07
0.000109586
0.0907978
5.06366e-07
0.000100489
0.0841558
9.02671e-05
0.0762327
-4.25236e-09
3.42109e-07
0.000200646
0.113314
-5.47103e-10
3.13331e-07
0.00022355
0.125271
3.46834e-07
0.000243664
0.135256
2.4167e-07
0.000258962
0.142441
-5.21563e-09
0.000267191
0.146202
-2.51913e-07
0.000267192
0.146202
-3.5653e-07
0.000258963
0.142441
-3.22061e-07
0.000243667
0.135256
-3.49396e-07
0.000223553
0.125271
0.00020065
0.113314
-7.13752e-09
2.24972e-06
0.000330972
0.140326
-8.02784e-10
3.17153e-06
0.000368122
0.155457
3.01791e-06
0.00040048
0.168032
1.83135e-06
0.000424707
0.177056
-7.78888e-09
0.000437674
0.18177
-1.84662e-06
0.000437675
0.18177
-3.03225e-06
0.00042471
0.177056
-3.18451e-06
0.000400484
0.168032
-2.26095e-06
0.000368126
0.155457
0.000330977
0.140326
-1.01403e-08
5.37351e-06
0.000457172
0.15802
-1.0828e-09
7.82704e-06
0.000506781
0.175554
7.39355e-06
0.000549564
0.190047
4.44131e-06
0.00058116
0.200414
-1.04767e-08
0.000597966
0.205819
-4.4618e-06
0.000597968
0.205819
-7.4127e-06
0.000581163
0.200414
-7.84416e-06
0.000549569
0.190047
-5.38808e-06
0.000506788
0.175554
0.000457178
0.15802
-1.29694e-08
9.66996e-06
0.000556587
0.167152
-1.39208e-09
1.42054e-05
0.000614067
0.186407
1.34002e-05
0.000663013
0.202229
8.02593e-06
0.000698664
0.213502
-1.31655e-08
0.000717493
0.219368
-8.05163e-06
0.000717494
0.219368
-1.34241e-05
0.000698668
0.213502
-1.42265e-05
0.000663019
0.202229
-9.68768e-06
0.000614074
0.186407
0.000556595
0.167152
-1.55656e-08
1.49979e-05
0.000612079
0.168483
-1.74967e-09
2.20712e-05
0.000671241
0.188868
2.07979e-05
0.000720827
0.205509
1.24347e-05
0.00075641
0.217317
-1.57782e-08
0.000775045
0.223445
-1.24654e-05
0.000775046
0.223444
-2.08264e-05
0.000756414
0.217317
-2.20961e-05
0.000720834
0.205509
-1.50185e-05
0.000671249
0.188867
0.000612088
0.168483
-1.78754e-08
2.11744e-05
0.000614673
0.162775
-2.1424e-09
3.11168e-05
0.000669199
0.183792
2.92463e-05
0.00071403
0.200831
1.74458e-05
0.000745651
0.212861
-1.81456e-08
0.000762044
0.219085
-1.74811e-05
0.000762045
0.219085
-2.92788e-05
0.000745655
0.212861
-3.1145e-05
0.000714036
0.200831
-2.11974e-05
0.000669206
0.183792
0.000614681
0.162775
-1.98138e-08
2.81246e-05
0.000564506
0.150789
-2.58771e-09
4.09961e-05
0.000609481
0.172051
3.83088e-05