/*--------------------------------*- C++ -*----------------------------------*\
| =========                 |                                                 |
| \\      /  F ield         | OpenFOAM: The Open Source CFD Toolbox           |
|  \\    /   O peration     | Version:  2106                                  |
|   \\  /    A nd           | Website:  www.openfoam.com                      |
|    \\/     M anipulation  |                                                 |
\*---------------------------------------------------------------------------*/
FoamFile
{
    version     2.0;
    format      ascii;
    arch        "LSB;label=32;scalar=64";
    class       surfaceScalarField;
    location    "0.43";
    object      phi;
}
// * * * * * * * * * * * * * * * * * * * * * * * * * * * * * * * * * * * * * //

dimensions      [0 3 -1 0 0 0 0];

oriented        oriented;

internalField   nonuniform List<scalar> 
29100
(
0.0011808
0.150388
0.0809245
-2.94314e-10
0.00145306
0.155265
0.0889311
0.00124693
0.158683
0.0956195
0.000710127
0.16096
0.100407
-3.47022e-09
0.162103
0.1029
-0.000710134
0.162103
0.1029
-0.00124693
0.16096
0.100407
-0.00145307
0.158683
0.0956195
-0.00118081
0.155265
0.0889311
0.150388
0.0809245
-5.27428e-09
0.00236401
0.20821
0.155477
-6.00771e-10
0.00328371
0.212791
0.169003
0.00292876
0.215858
0.180063
0.00169424
0.217773
0.187884
-9.32687e-09
0.218711
0.191926
-0.00169426
0.218711
0.191926
-0.00292878
0.217773
0.187884
-0.00328372
0.215858
0.180063
-0.00236402
0.212791
0.169003
0.20821
0.155477
-1.36176e-08
0.00301534
0.21931
0.184715
-9.16455e-10
0.0042649
0.222227
0.199743
0.00382831
0.224126
0.211839
0.00221727
0.225161
0.220317
-1.46793e-08
0.225641
0.224675
-0.0022173
0.225641
0.224675
-0.00382833
0.225161
0.220317
-0.00426492
0.224126
0.211839
-0.00301537
0.222227
0.199743
0.21931
0.184715
-2.07854e-08
0.00344327
0.206043
0.191823
-1.17714e-09
0.00480373
0.207287
0.206988
0.00430288
0.208042
0.219041
0.00248766
0.208272
0.22743
-1.99006e-08
0.208339
0.231723
-0.0024877
0.208339
0.231723
-0.00430291
0.208272
0.22743
-0.00480376
0.208042
0.219041
-0.0034433
0.207287
0.206988
0.206043
0.191823
-2.71221e-08
0.00367137
0.181084
0.186455
-1.44044e-09
0.00505257
0.18104
0.201254
0.00451341
0.180925
0.212898
0.00260593
0.180585
0.220953
-2.53221e-08
0.180363
0.225063
-0.00260598
0.180363
0.225063
-0.00451346
0.180585
0.220953
-0.00505261
0.180925
0.212898
-0.00367141
0.18104
0.201254
0.181084
0.186455
-3.29138e-08
0.00375475
0.151719
0.173946
-1.71499e-09
0.00511616
0.150822
0.188225
0.00456062
0.150141
0.199369
0.00263165
0.149465
0.207039
-3.11428e-08
0.149081
0.210941
-0.00263172
0.149081
0.210941
-0.00456067
0.149465
0.207039
-0.00511621
0.150141
0.199369
-0.00375479
0.150822
0.188225
0.151719
0.173946
-3.83175e-08
0.00376091
0.122035
0.157427
-2.0235e-09
0.00508839
0.120657
0.171186
0.00452885
0.119662
0.181854
0.00261311
0.118842
0.18916
-3.7497e-08
0.1184
0.192869
-0.00261319
0.1184
0.192869
-0.00452892
0.118842
0.18916
-0.00508845
0.119662
0.181854
-0.00376096
0.120657
0.171186
0.122035
0.157427
-4.34419e-08
0.00372448
0.0942496
0.138734
-2.3594e-09
0.00503155
0.0926509
0.152028
0.00447801
0.0915402
0.162277
0.00258492
0.0907239
0.169265
-4.43348e-08
0.0903016
0.172805
-0.00258501
0.0903016
0.172805
-0.00447809
0.0907239
0.169265
-0.00503162
0.0915402
0.162277
-0.00372454
0.0926509
0.152028
0.0942496
0.138734
-4.81543e-08
0.00369048
0.0694772
0.118923
-2.95438e-09
0.00501022
0.0678242
0.131816
0.00446042
0.0667714
0.141707
0.00257396
0.0660745
0.148422
-5.12441e-08
0.0657294
0.151815
-0.00257406
0.0657294
0.151815
-0.00446052
0.0660745
0.148422
-0.0050103
0.0667714
0.141707
-0.00369055
0.0678242
0.131816
0.0694772
0.118923
-5.23791e-08
0.00390844
0.0985991
-3.72243e-09
0.0479794
0.00519694
0.111151
0.0466732
0.00457023
0.120731
0.045842
0.00261739
0.127207
0.0453386
-5.74037e-08
0.13047
0.0450916
-0.0026175
0.13047
0.0450916
-0.00457033
0.127207
0.0453386
-0.00519703
0.120731
0.045842
-0.00390851
0.111151
0.0466732
0.0985991
-5.59687e-08
0.0479794
-0.000240365
0.0364993
0.0446656
-4.63362e-10
-0.00024242
0.0396707
0.0492625
-0.000170436
0.0423507
0.0531968
-8.48915e-05
0.0442672
0.0560541
-5.38204e-09
0.0452586
0.0575565
8.48808e-05
0.0452586
0.0575565
0.000170426
0.0442672
0.0560541
0.00024241
0.0423507
0.0531968
0.000240355
0.0396707
0.0492625
0.0364993
0.0446656
-8.50637e-09
6.42492e-05
0.0805965
0.111315
-9.82914e-10
0.000252227
0.0863766
0.122109
0.000301513
0.0911835
0.131181
0.000201991
0.0945513
0.1377
-1.5879e-08
0.0962812
0.141105
-0.000202023
0.0962812
0.141105
-0.000301543
0.0945513
0.1377
-0.000252256
0.0911835
0.131181
-6.42749e-05
0.0863766
0.122109
0.0805965
0.111315
-2.35322e-08
0.000612825
0.112007
0.152692
-1.53005e-09
0.00103006
0.118697
0.167005
0.00100782
0.124187
0.178857
0.000615916
0.127959
0.187301
-2.62054e-08
0.129882
0.19169
-0.000615968
0.129882
0.19169
-0.00100787
0.127959
0.187301
-0.00103011
0.124187
0.178857
-0.000612867
0.118697
0.167005
0.112007
0.152692
-3.71502e-08
0.00123016
0.128409
0.17419
-2.0125e-09
0.00187131
0.134772
0.190271
0.00176065
0.139928
0.203411
0.00105147
0.143396
0.212703
-3.65445e-08
0.145146
0.21751
-0.00105154
0.145146
0.21751
-0.00176072
0.143396
0.212703
-0.00187137
0.139928
0.203411
-0.00123022
0.134772
0.190271
0.128409
0.17419
-4.93565e-08
0.00183315
0.131554
0.181477
-2.52352e-09
0.00266966
0.136904
0.198286
0.00246695
0.141169
0.21186
0.00145715
0.143969
0.22139
-4.71265e-08
0.145365
0.226301
-0.00145724
0.145365
0.226301
-0.00246703
0.143969
0.22139
-0.00266974
0.141169
0.21186
-0.00183322
0.136904
0.198286
0.131554
0.181477
-6.03333e-08
0.00237784
0.124486
0.178636
-3.10971e-09
0.00337862
0.128553
0.195575
0.00308966
0.13172
0.209107
0.00181361
0.133738
0.218546
-5.80915e-08
0.134729
0.223392
-0.00181372
0.134729
0.223392
-0.00308976
0.133738
0.218546
-0.00337872
0.13172
0.209107
-0.00237792
0.128553
0.195575
0.124486
0.178636
-7.0149e-08
0.00284123
0.110437
0.168635
-3.84957e-09
0.00398198
0.113221
0.185378
0.00362044
0.115308
0.198627
0.00211796
0.116589
0.207811
-6.94563e-08
0.117206
0.212509
-0.00211809
0.117206
0.212509
-0.00362057
0.116589
0.207811
-0.0039821
0.115308
0.198627
-0.00284132
0.113221
0.185378
0.110437
0.168635
-7.88345e-08
0.00321764
0.0923254
0.153628
-4.6422e-09
0.00448962
0.0939595
0.170017
0.00407326
0.0951232
0.182878
0.00237916
0.0958082
0.191741
-8.0893e-08
0.0961314
0.196258
-0.00237932
0.0961314
0.196258
-0.00407341
0.0958082
0.191741
-0.00448974
0.0951232
0.182878
-0.00321774
0.0939596
0.170017
0.0923254
0.153628
-8.60092e-08
0.00354292
0.0725465
0.135159
-5.98022e-09
0.00495098
0.0732265
0.151141
0.0044862
0.0737118
0.163583
0.00261623
0.0739928
0.172107
-9.13734e-08
0.0741252
0.176437
-0.0026164
0.0741252
0.176437
-0.00448636
0.0739928
0.172107
-0.00495112
0.0737118
0.163583
-0.00354303
0.0732265
0.151141
0.0725465
0.135159
-9.12513e-08
0.00396514
0.114329
-7.86629e-09
0.0528515
0.00549127
0.129914
0.0529377
0.00493662
0.141941
0.0530564
0.00286282
0.150131
0.0531419
-9.93298e-08
0.154277
0.0531811
-0.00286301
0.154277
0.0531811
-0.00493679
0.150131
0.0531419
-0.00549141
0.141941
0.0530564
-0.00396526
0.129914
0.0529377
0.114329
-9.42014e-08
0.0528515
3.92877e-05
0.00995928
0.0346671
-5.03124e-10
3.5232e-05
0.0109893
0.0382772
2.96248e-05
0.0118636
0.0413388
1.63979e-05
0.0125127
0.0435546
-5.511e-09
0.0128547
0.0447182
-1.64087e-05
0.0128547
0.0447182
-2.96354e-05
0.0125127
0.0435546
-3.52421e-05
0.0118636
0.0413388
-3.92975e-05
0.0109893
0.0382772
0.00995928
0.0346671
-9.247e-09
0.000280594
0.0301833
0.0908104
-1.07914e-09
0.00038088
0.0328805
0.100118
0.000340262
0.0351377
0.107947
0.00019843
0.0367655
0.113589
-1.6967e-08
0.0376159
0.116543
-0.000198464
0.0376159
0.116543
-0.000340295
0.0367655
0.113589
-0.00038091
0.0351377
0.107947
-0.000280622
0.0328805
0.100118
0.0301833
0.0908104
-2.60384e-08
0.000598606
0.050978
0.131299
-1.72807e-09
0.000849073
0.0549564
0.144679
0.000769
0.0582415
0.155833
0.000450649
0.0605578
0.163827
-2.85828e-08
0.0617575
0.167999
-0.000450706
0.0617575
0.167999
-0.000769054
0.0605578
0.163827
-0.000849124
0.0582415
0.155833
-0.000598651
0.0549564
0.144679
0.050978
0.131299
-4.14577e-08
0.000963578
0.0666686
0.157536
-2.36521e-09
0.00138239
0.0712118
0.173596
0.00126229
0.0749174
0.186856
0.000741193
0.0774789
0.196303
-4.03795e-08
0.0787936
0.201216
-0.000741273
0.0787936
0.201215
-0.00126237
0.0774789
0.196303
-0.00138246
0.0749174
0.186855
-0.00096364
0.0712118
0.173596
0.0666686
0.157536
-5.52797e-08
0.00135042
0.0752795
0.171515
-3.08016e-09
0.00193365
0.0797306
0.189184
0.00177008
0.0833127
0.203628
0.00103963
0.0857409
0.213858
-5.24041e-08
0.0869746
0.219159
-0.00103973
0.0869746
0.219159
-0.00177018
0.0857409
0.213858
-0.00193374
0.0833127
0.203628
-0.00135049
0.0797307
0.189184
0.0752795
0.171515
-6.75513e-08
0.00173879
0.0768435
0.175333
-3.94517e-09
0.00247288
0.0807396
0.193832
0.00226269
0.0838206
0.20881
0.00132822
0.0858666
0.219355
-6.46518e-08
0.0868945
0.2248
-0.00132834
0.0868945
0.2248
-0.00226281
0.0858666
0.219355
-0.00247299
0.0838206
0.20881
-0.00173888
0.0807396
0.193832
0.0768435
0.175333
-7.82056e-08
0.00210557
0.0724436
0.17093
-5.06151e-09
0.00297611
0.075527
0.18972
0.00272042
0.0779083
0.204795
0.00159599
0.0794561
0.215346
-7.69892e-08
0.0802247
0.220775
-0.00159614
0.0802247
0.220775
-0.00272056
0.0794561
0.215346
-0.00297623
0.0779083
0.204795
-0.00210568
0.075527
0.18972
0.0724436
0.17093
-8.71707e-08
0.00243482
0.0636359
0.160001
-6.29796e-09
0.00343355
0.0658145
0.178731
0.00313697
0.067454
0.193629
0.00183952
0.0685
0.203994
-8.89143e-08
0.0690145
0.209308
-0.00183969
0.0690145
0.209308
-0.00313713
0.0685
0.203994
-0.00343368
0.067454
0.193629
-0.00243493
0.0658145
0.178731
0.0636359
0.160001
-9.395e-08
0.00273911
0.0520796
0.143976
-8.18472e-09
0.00386136
0.0533914
0.162441
0.00352238
0.0543728
0.177003
0.00206266
0.0549965
0.18707
-9.91426e-08
0.0553029
0.192211
-0.00206285
0.0553029
0.192211
-0.00352256
0.0549965
0.18707
-0.00386151
0.0543729
0.177003
-0.00273923
0.0533915
0.162441
0.0520796
0.143976
-9.79397e-08
0.00307775
0.124039
-1.06641e-08
0.0392917
0.00430435
0.142159
0.0399194
0.00390396
0.156292
0.0404225
0.00227675
0.165995
0.0407602
-1.05891e-07
0.17093
0.0409268
-0.00227696
0.17093
0.0409268
-0.00390415
0.165995
0.0407602
-0.0043045
0.156292
0.0404225
-0.00307787
0.142159
0.0399194
0.124039
-9.86804e-08
0.0392917
-3.16128e-05
0.00404761
0.0306511
-4.94748e-10
-4.51594e-05
0.00445707
0.0338337
-3.64626e-05
0.00480465
0.0365254
-2.01194e-05
0.00506307
0.0384752
-4.84821e-09
0.00519845
0.0394997
2.01098e-05
0.00519845
0.0394997
3.64532e-05
0.00506307
0.0384752
4.515e-05
0.00480466
0.0365254
3.16037e-05
0.00445708
0.0338337
0.00404761
0.0306511
-8.56347e-09
9.42034e-06
0.0125559
0.0822927
-1.08615e-09
1.63266e-05
0.0137575
0.0908103
2.06801e-05
0.0147759
0.0979717
1.48476e-05
0.0155181
0.10314
-1.52847e-08
0.0159073
0.105849
-1.48778e-05
0.0159073
0.105849
-2.07094e-05
0.0155181
0.10314
-1.63537e-05
0.0147759
0.0979716
-9.44475e-06
0.0137575
0.0908102
0.0125559
0.0822927
-2.4144e-08
0.000121489
0.0223312
0.121402
-1.78804e-09
0.000184132
0.0243234
0.13405
0.00017678
0.0260007
0.144616
0.000107691
0.0272044
0.15221
-2.607e-08
0.0278329
0.156181
-0.000107743
0.0278329
0.156181
-0.00017683
0.0272045
0.15221
-0.000184179
0.0260007
0.144616
-0.000121531
0.0243235
0.13405
0.0223312
0.121402
-3.89777e-08
0.000290061
0.0309343
0.148643
-2.51409e-09
0.000432297
0.0334671
0.164311
0.000407408
0.0355785
0.177303
0.000244228
0.0370715
0.186599
-3.71215e-08
0.037846
0.191447
-0.000244301
0.037846
0.191447
-0.000407478
0.0370715
0.186599
-0.000432361
0.0355785
0.177303
-0.000290119
0.0334671
0.164311
0.0309343
0.148643
-5.21348e-08
0.000499461
0.0368614
0.165089
-3.34916e-09
0.000733809
0.0395957
0.182821
0.000686191
0.0418456
0.197409
0.000408679
0.043412
0.207795
-4.83727e-08
0.0442184
0.213196
-0.000408774
0.0442184
0.213196
-0.000686281
0.043412
0.207795
-0.000733891
0.0418456
0.197408
-0.000499533
0.0395957
0.182821
0.0368614
0.165089
-6.36488e-08
0.000733709
0.0394753
0.171986
-4.36952e-09
0.00106473
0.0420935
0.191003
0.000990265
0.0442109
0.206519
0.000587506
0.0456609
0.217509
-5.97154e-08
0.0464009
0.223205
-0.000587623
0.0464009
0.223205
-0.000990374
0.0456609
0.217509
-0.00106483
0.0442109
0.206519
-0.000733793
0.0420935
0.191003
0.0394754
0.171986
-7.34256e-08
0.000975649
0.0388043
0.170625
-5.67055e-09
0.00140354
0.0410658
0.19032
0.00130055
0.0428545
0.206255
0.000769665
0.0440586
0.21748
-7.09306e-08
0.0446674
0.223278
-0.000769804
0.0446674
0.223278
-0.00130068
0.0440586
0.21748
-0.00140365
0.0428546
0.206255
-0.000975744
0.0410658
0.19032
0.0388043
0.170625
-8.13506e-08
0.00121245
0.0353303
0.162262
-7.11196e-09
0.00173712
0.0370882
0.182184
0.00160558
0.0384457
0.19817
0.000948324
0.0393452
0.209365
-8.14725e-08
0.0397962
0.215128
-0.000948483
0.0397962
0.215128
-0.00160572
0.0393452
0.209365
-0.00173725
0.0384457
0.19817
-0.00121255
0.0370882
0.182184
0.0353304
0.162262
-8.69255e-08
0.00144834
0.0297944
0.148064
-9.15321e-09
0.00206816
0.031
0.16791
0.00190423
0.0319165
0.183697
0.00112156
0.0325182
0.19468
-9.00909e-08
0.0328185
0.200311
-0.00112174
0.0328186
0.200311
-0.00190439
0.0325183
0.19468
-0.0020683
0.0319165
0.183696
-0.00144844
0.031
0.16791
0.0297944
0.148064
-8.95445e-08
0.00169902
0.129092
-1.1701e-08
0.0230427
0.00240808
0.148714
0.023736
0.00220434
0.164131
0.0242816
0.00129273
0.174776
0.0246487
-9.51512e-08
0.18021
0.024832
-0.00129292
0.18021
0.024832
-0.0022045
0.174776
0.0246487
-0.00240822
0.16413
0.0242816
-0.00169913
0.148714
0.023736
0.129092
-8.87944e-08
0.0230427
2.13757e-06
0.00130721
0.0293417
-4.51976e-10
-2.4613e-07
0.0014517
0.0323844
9.92634e-08
0.00157751
0.0349476
1.10142e-07
0.00167357
0.0368016
-3.96641e-09
0.00172481
0.037775
-1.18017e-07
0.00172481
0.037775
-1.07082e-07
0.00167357
0.0368016
2.38414e-07
0.00157751
0.0349476
-2.14493e-06
0.0014517
0.0323843
0.00130721
0.0293417
-7.35356e-09
3.03115e-05
0.00469282
0.0788768
-1.04861e-09
3.9006e-05
0.00517959
0.0870737
3.58186e-05
0.0055981
0.0939543
2.12099e-05
0.00590903
0.0989187
-1.26427e-08
0.00607379
0.101521
-2.12349e-05
0.00607379
0.101521
-3.58431e-05
0.00590903
0.0989187
-3.90294e-05
0.0055981
0.0939542
-3.03336e-05
0.0051796
0.0870736
0.00469283
0.0788768
-2.09433e-08
8.43229e-05
0.00905195
0.116959
-1.73339e-09
0.000119261
0.00993464
0.12926
0.000109931
0.0106867
0.139536
6.51964e-05
0.0112352
0.146928
-2.16835e-08
0.0115243
0.150795
-6.52392e-05
0.0115243
0.150795
-0.000109972
0.0112352
0.146928
-0.0001193
0.0106867
0.139536
-8.43588e-05
0.00993465
0.12926
0.00905196
0.116959
-3.34991e-08
0.00016392
0.0132936
0.144237
-2.45991e-09
0.000237708
0.0145022
0.159669
0.000220587
0.0155218
0.172485
0.000130932
0.0162544
0.181669
-3.09743e-08
0.0166381
0.186464
-0.000130993
0.0166381
0.186464
-0.000220645
0.0162544
0.181669
-0.000237763
0.0155218
0.172485
-0.000163968
0.0145022
0.159669
0.0132937
0.144237
-4.47161e-08
0.000266152
0.0166008
0.161516
-3.2994e-09
0.000387568
0.0179925
0.179209
0.000360473
0.0191529
0.193805
0.00021394
0.0199745
0.204222
-4.04116e-08
0.0204016
0.209646
-0.00021402
0.0204016
0.209646
-0.000360548
0.0199745
0.204222
-0.000387637
0.0191529
0.193805
-0.000266212
0.0179926
0.179209
0.0166008
0.161516
-5.45269e-08
0.0003857
0.0184879
0.169713
-4.31283e-09
0.000559953
0.0198995
0.188922
0.000520684
0.0210585
0.204652
0.000308806
0.021867
0.215828
-4.98497e-08
0.0222838
0.221632
-0.000308904
0.0222838
0.221632
-0.000520776
0.021867
0.215828
-0.000560035
0.0210586
0.204652
-0.000385771
0.0198995
0.188922
0.018488
0.169713
-6.27704e-08
0.000515208
0.0187886
0.169809
-5.57603e-09
0.000744807
0.0200736
0.189916
0.00069182
0.021109
0.206257
0.000409917
0.02182
0.217808
-5.90585e-08
0.0221835
0.223789
-0.000410032
0.0221835
0.223789
-0.000691928
0.02182
0.217808
-0.000744901
0.021109
0.206257
-0.000515288
0.0200736
0.189916
0.0187886
0.169809
-6.93215e-08
0.000648073
0.0176006
0.162802
-6.96932e-09
0.000934234
0.0186525
0.183319
0.00086635
0.0194828
0.199864
0.000512632
0.0200443
0.211494
-6.75528e-08
0.020329
0.217495
-0.000512764
0.020329
0.217495
-0.000866471
0.0200444
0.211494
-0.000934339
0.0194828
0.199864
-0.000648159
0.0186526
0.183319
0.0176006
0.162802
-7.37585e-08
0.000784325
0.015212
0.149668
-8.83573e-09
0.00112554
0.0159776
0.170243
0.00103971
0.0165703
0.186695
0.000613613
0.016966
0.198184
-7.42995e-08
0.0171652
0.204088
-0.000613757
0.0171652
0.204088
-0.00103985
0.016966
0.198184
-0.00112565
0.0165703
0.186695
-0.000784414
0.0159776
0.170243
0.015212
0.149668
-7.55731e-08
0.000919605
0.131352
-1.10526e-08
0.0120326
0.00131182
0.151797
0.012503
0.00120709
0.167933
0.0128724
0.000710241
0.179116
0.0131229
-7.79982e-08
0.184836
0.0132489
-0.000710392
0.184836
0.0132489
-0.00120722
0.179116
0.0131229
-0.00131193
0.167933
0.0128724
-0.000919694
0.151797
0.012503
0.131352
-7.44575e-08
0.0120326
-5.53012e-06
0.000562827
0.0287844
-3.76551e-10
-8.25235e-06
0.000619104
0.031768
-6.58082e-06
0.000666787
0.0342791
-3.63551e-06
0.000703005
0.0360956
-3.12824e-09
0.000722056
0.0370493
3.62944e-06
0.000722056
0.0370493
6.57462e-06
0.000703006
0.0360956
8.2463e-06
0.000666788
0.0342791
5.524e-06
0.000619106
0.031768
0.000562828
0.0287844
-6.0089e-09
-1.2447e-06
0.00195964
0.0774812
-9.11262e-10
-2.53695e-06
0.00215865
0.0855354
-1.25048e-06
0.00232831
0.0922914
-2.3697e-07
0.00245451
0.0971662
-1.00148e-08
0.00252135
0.0997214
2.16357e-07
0.00252135
0.0997214
1.23116e-06
0.00245451
0.0971662
2.51763e-06
0.00232831
0.0922914
1.22699e-06
0.00215865
0.0855354
0.00195964
0.0774812
-1.7071e-08
1.64602e-05
0.00380968
0.115092
-1.52157e-09
2.42606e-05
0.00418911
0.127222
2.37878e-05
0.00451265
0.137353
1.47101e-05
0.00475007
0.144642
-1.70306e-08
0.00487553
0.148456
-1.47436e-05
0.00487554
0.148456
-2.38204e-05
0.00475007
0.144642
-2.42913e-05
0.00451266
0.137353
-1.64886e-05
0.00418912
0.127222
0.00380969
0.115092
-2.69007e-08
4.81799e-05
0.00570612
0.142293
-2.1757e-09
7.16105e-05
0.00625163
0.157583
6.81232e-05
0.00671425
0.170286
4.11144e-05
0.00704954
0.179397
-2.42966e-08
0.00722591
0.184155
-4.11622e-05
0.00722591
0.184155
-6.81691e-05
0.00704955
0.179397
-7.16533e-05
0.00671426
0.170286
-4.82186e-05
0.00625164
0.157583
0.00570613
0.142293
-3.58526e-08
9.27086e-05
0.00728989
0.159839
-2.92522e-09
0.000137184
0.0079477
0.177469
0.000129471
0.00850024
0.192026
7.75894e-05
0.00889563
0.202427
-3.16688e-08
0.00910235
0.207847
-7.76516e-05
0.00910235
0.207847
-0.000129531
0.00889564
0.202427
-0.000137239
0.00850025
0.192026
-9.27565e-05
0.00794772
0.177469
0.00728991
0.159839
-4.37506e-08
0.000147952
0.00830586
0.168549
-3.81076e-09
0.000217452
0.00900243
0.187797
0.000204335
0.00957963
0.203586
0.000122019
0.00998706
0.214819
-3.89894e-08
0.0101986
0.220657
-0.000122095
0.0101986
0.220657
-0.000204407
0.00998707
0.214819
-0.000217517
0.00957964
0.203586
-0.000148008
0.00900245
0.187797
0.00830587
0.168549
-5.03881e-08
0.000210772
0.00862436
0.16928
-4.88362e-09
0.000307964
0.00928505
0.189536
0.000288489
0.00982306
0.206033
0.000171857
0.0101974
0.217715
-4.60589e-08
0.0103901
0.223769
-0.000171947
0.0103901
0.223769
-0.000288573
0.0101974
0.217715
-0.000308038
0.00982308
0.206033
-0.000210835
0.00928507
0.189536
0.00862437
0.16928
-5.56557e-08
0.000278244
0.00823821
0.16291
-6.05283e-09
0.000404934
0.00880151
0.183676
0.000378164
0.0092514
0.200462
0.000224737
0.00955975
0.212285
-5.24989e-08
0.00971717
0.218393
-0.000224839
0.00971717
0.218393
-0.000378258
0.00955976
0.212285
-0.000405016
0.00925142
0.200462
-0.000278312
0.00880152
0.183676
0.00823822
0.16291
-5.92416e-08
0.000350572
0.00724212
0.150314
-7.53814e-09
0.000506827
0.00767083
0.171218
0.000470746
0.00800626
0.187976
0.000278765
0.00823286
0.199703
-5.75553e-08
0.00834761
0.205737
-0.000278877
0.00834762
0.205737
-0.000470849
0.00823286
0.199703
-0.000506915
0.00800627
0.187976
-0.000350643
0.00767084
0.171218
0.00724213
0.150314
-6.0771e-08
0.000423622
0.13236
-9.22191e-09
0.00581014
0.000608694
0.153195
0.00608716
0.000563109
0.169679
0.00630581
0.000332406
0.181125
0.00645496
-6.03182e-08
0.186986
0.00653039
-0.000332522
0.186986
0.00653039
-0.000563215
0.181125
0.00645497
-0.000608784
0.169679
0.00630581
-0.000423692
0.153195
0.00608717
0.13236
-6.00509e-08
0.00581015
-7.98904e-07
0.000177378
0.0286078
-2.85968e-10
-1.58002e-06
0.000196533
0.0315722
-1.16773e-06
0.000213254
0.0340654
-6.30651e-07
0.000226403
0.0358687
-2.33847e-09
0.000233423
0.0368152
6.25993e-07
0.000233423
0.0368152
1.16312e-06
0.000226403
0.0358687
1.57538e-06
0.000213255
0.0340654
7.94278e-07
0.000196534
0.0315722
0.000177379
0.0286078
-4.40239e-09
1.66091e-06
0.000696214
0.0769607
-7.23862e-10
1.66578e-06
0.000771076
0.0849609
1.79832e-06
0.000836037
0.0916685
1.17896e-06
0.000885235
0.096508
-7.44268e-09
0.000911509
0.0990445
-1.19369e-06
0.000911509
0.0990445
-1.81275e-06
0.000885236
0.096508
-1.67946e-06
0.000836039
0.0916685
-1.67371e-06
0.000771078
0.0849608
0.000696217
0.0769607
-1.2533e-08
9.22787e-06
0.00143455
0.114345
-1.22293e-09
1.2843e-05
0.00158558
0.126404
1.21522e-05
0.00171594
0.136473
7.34845e-06
0.0018129
0.143719
-1.27753e-08
0.0018645
0.14751
-7.3737e-06
0.0018645
0.14751
-1.21766e-05
0.0018129
0.143719
-1.28662e-05
0.00171595
0.136473
-9.2493e-06
0.00158559
0.126404
0.00143455
0.114345
-2.02371e-08
2.25376e-05
0.00223291
0.141472
-1.75779e-09
3.2715e-05
0.00245965
0.156699
3.07599e-05
0.00265401
0.16935
1.84342e-05
0.00279659
0.178425
-1.82364e-08
0.0028721
0.183166
-1.84702e-05
0.0028721
0.183166
-3.07944e-05
0.0027966
0.178425
-3.27473e-05
0.00265402
0.16935
-2.25669e-05
0.00245966
0.156699
0.00223291
0.141472
-2.72092e-08
4.16592e-05
0.00293884
0.159092
-2.35943e-09
6.10547e-05
0.00322257
0.176686
5.73554e-05
0.00346343
0.191221
3.42781e-05
0.00363786
0.201609
-2.37346e-08
0.00372966
0.207024
-3.43248e-05
0.00372966
0.207024
-5.73998e-05
0.00363786
0.201609
-6.10956e-05
0.00346344
0.19122
-4.16955e-05
0.00322258
0.176686
0.00293885
0.159091
-3.33539e-08
6.60579e-05
0.00343212
0.16799
-3.05245e-09
9.68401e-05
0.00374258
0.187247
9.08864e-05
0.00400275
0.203053
5.42325e-05
0.00418863
0.214305
-2.91547e-08
0.00428578
0.220156
-5.42897e-05
0.00428578
0.220156
-9.09404e-05
0.00418864
0.214305
-9.68891e-05
0.00400276
0.203053
-6.61005e-05
0.00374259
0.187247
0.00343213
0.16799
-3.85581e-08
9.46052e-05
0.0036398
0.168978
-3.86769e-09
0.000138377
0.00394318
0.189292
0.000129696
0.00419327
0.205851
7.72813e-05
0.00436942
0.217586
-3.43472e-08
0.00446073
0.223671
-7.73485e-05
0.00446073
0.223671
-0.000129759
0.00436942
0.217586
-0.000138433
0.00419328
0.205851
-9.4653e-05
0.00394319
0.189292
0.00363981
0.168978
-4.27514e-08
0.000126082
0.00354113
0.162883
-4.74391e-09
0.000183934
0.0038073
0.183754
0.000171991
0.00402259
0.200645
0.000102283
0.00417188
0.212553
-3.90471e-08
0.00424857
0.218707
-0.00010236
0.00424857
0.218707
-0.000172062
0.00417189
0.212553
-0.000183996
0.0040226
0.200645
-0.000126133
0.00380731
0.183754
0.00354114
0.162882
-4.5724e-08
0.000160255
0.00316369
0.150531
-5.80331e-09
0.000232207
0.00337246
0.171581
0.000216013
0.00353735
0.188478
0.000128048
0.00364976
0.200313
-4.27607e-08
0.00370696
0.206406
-0.000128131
0.00370697
0.206406
-0.00021609
0.00364976
0.200313
-0.000232274
0.00353735
0.188477
-0.000160309
0.00337247
0.171581
0.0031637
0.150531
-4.72282e-08
0.000193083
0.132753
-6.95144e-09
0.00257757
0.000278777
0.153766
0.00271617
0.000258802
0.170411
0.00282582
0.000153105
0.181979
0.00290099
-4.49164e-08
0.187907
0.00293916
-0.000153192
0.187907
0.00293916
-0.000258882
0.181979
0.00290099
-0.000278845
0.170411
0.00282583
-0.000193137
0.153766
0.00271617
0.132753
-4.71532e-08
0.00257758
-1.34042e-06
7.06721e-05
0.0285385
-2.00865e-10
-1.93352e-06
7.75598e-05
0.0314953
-1.56447e-06
8.34706e-05
0.0339816
-8.6726e-07
8.80783e-05
0.0357799
-1.71249e-09
9.05126e-05
0.0367238
8.63856e-07
9.05126e-05
0.0367238
1.56112e-06
8.80785e-05
0.0357799
1.93019e-06
8.3471e-05
0.0339816
1.33712e-06
7.75604e-05
0.0314952
7.06724e-05
0.0285385
-3.08629e-09
-1.68988e-06
0.000266752
0.0767663
-5.35674e-10
-2.54736e-06
0.000294625
0.0847447
-2.0825e-06
0.000318774
0.0914328
-1.12555e-06
0.000337104
0.096258
-5.42356e-09
0.000346882
0.098787
1.11481e-06
0.000346882
0.098787
2.07205e-06
0.000337105
0.096258
2.53723e-06
0.000318775
0.0914327
1.68012e-06
0.000294627
0.0847446
0.000266753
0.0767663
-8.89357e-09
5.14883e-07
0.000550482
0.114061
-8.92914e-10
5.69792e-07
0.000609034
0.12609
7.69913e-07
0.000659577
0.136132
5.83008e-07
0.000697367
0.143359
-9.29268e-09
0.000717528
0.14714
-6.01362e-07
0.000717528
0.14714
-7.87631e-07
0.000697368
0.143359
-5.8597e-07
0.000659579
0.136132
-5.28571e-07
0.000609037
0.12609
0.000550486
0.114061
-1.42054e-08
5.13546e-06
0.000868218
0.141149
-1.3066e-09
7.55635e-06
0.00095915
0.156347
7.32857e-06
0.00103733
0.168973
4.4916e-06
0.00109506
0.178031
-1.32449e-08
0.00112574
0.182762
-4.51773e-06
0.00112574
0.182762
-7.35363e-06
0.00109507
0.178031
-7.57982e-06
0.00103733
0.168973
-5.15679e-06
0.000959155
0.156346
0.000868223
0.141149
-1.96074e-08
1.25006e-05
0.00116125
0.158786
-1.75218e-09
1.84951e-05
0.00127864
0.176361
1.75984e-05
0.00137873
0.19088
1.06131e-05
0.00145174
0.201259
-1.72049e-08
0.00149032
0.20667
-1.0647e-05
0.00149032
0.20667
-1.76307e-05
0.00145174
0.201259
-1.85249e-05
0.00137873
0.19088
-1.25271e-05
0.00127864
0.176361
0.00116126
0.158786
-2.43097e-08
2.23597e-05
0.00137848
0.16775
-2.24723e-09
3.30317e-05
0.00151067
0.187004
3.12487e-05
0.00162203
0.202811
1.87464e-05
0.00170221
0.214067
-2.10862e-08
0.00174429
0.21992
-1.87879e-05
0.00174429
0.21992
-3.12879e-05
0.00170221
0.214067
-3.30674e-05
0.00162203
0.202811
-2.23909e-05
0.00151067
0.187004
0.00137849
0.16775
-2.82981e-08
3.43074e-05
0.0014847
0.168837
-2.81174e-09
5.05386e-05
0.00161738
0.189169
4.76597e-05
0.00172743
0.205749
2.85094e-05
0.00180555
0.217502
-2.47847e-08
0.00184622
0.223598
-2.8558e-05
0.00184623
0.223598
-4.77053e-05
0.00180555
0.217502
-5.05796e-05
0.00172744
0.205749
-3.43426e-05
0.00161739
0.189169
0.00148471
0.168837
-3.15847e-08
4.79013e-05
0.00146497
0.162854
-3.40874e-09
7.03446e-05
0.00158443
0.183764
6.6109e-05
0.00168171
0.200695
3.94345e-05
0.00174967
0.212635
-2.81295e-08
0.00178473
0.218808
-3.94894e-05
0.00178474
0.218808
-6.61602e-05
0.00174968
0.212635
-7.039e-05
0.00168171
0.200695
-4.79396e-05
0.00158444
0.183764
0.00146498
0.162854
-3.40486e-08
6.31272e-05
0.00132498
0.150608
-4.09621e-09
9.19415e-05
0.00142122
0.171715
8.58601e-05
0.0014977
0.188668
5.10148e-05
0.00155018
0.200548
-3.08252e-08
0.00157698
0.206665
-5.10749e-05
0.00157698
0.206665
-8.59158e-05
0.00155018
0.200548
-9.19902e-05
0.0014977
0.188668
-6.31675e-05
0.00142122
0.171715
0.00132499
0.150608
-3.55424e-08
7.80998e-05
0.13291
-4.80521e-09
0.00109037
0.000113352
0.153996
0.00115608
0.000105642
0.170708
0.00120829
6.26397e-05
0.182328
0.00124423
-3.25435e-08
0.188284
0.00126253
-6.2703e-05
0.188284
0.00126253
-0.0001057
0.182328
0.00124423
-0.000113403
0.170708
0.00120829
-7.8141e-05
0.153996
0.00115608
0.132909
-3.60258e-08
0.00109037
-3.69484e-07
1.71126e-05
0.0285218
-1.3133e-10
-5.73801e-07
1.89729e-05
0.0314765
-4.6547e-07
2.06917e-05
0.0339608
-2.60215e-07
2.2116e-05
0.0357576
-1.22111e-09
2.28856e-05
0.0367007
2.57789e-07
2.28857e-05
0.0367007
4.63104e-07
2.21162e-05
0.0357576
5.71462e-07
2.0692e-05
0.0339608
3.67217e-07
1.89733e-05
0.0314765
1.71129e-05
0.0285218
-2.08328e-09
-5.19172e-07
7.88352e-05
0.0767051
-3.6437e-10
-8.83669e-07
8.78325e-05
0.0846762
-7.52789e-07
9.58878e-05
0.0913574
-4.19633e-07
0.000102177
0.0961776
-3.84354e-09
0.000105573
0.0987039
4.12026e-07
0.000105574
0.0987039
7.45444e-07
0.000102177
0.0961776
8.76539e-07
9.5889e-05
0.0913574
5.12399e-07
8.78339e-05
0.0846761
7.8836e-05
0.0767051
-6.08002e-09
2.11069e-07
0.00017704
0.113962
-6.1188e-10
1.04856e-07
0.000197394
0.12598
1.29941e-07
0.000215325
0.136013
1.04847e-07
0.000228985
0.143232
-6.57e-09
0.000236342
0.14701
-1.17795e-07
0.000236342
0.14701
-1.42446e-07
0.000228986
0.143232
-1.15898e-07
0.000215326
0.136013
-2.20638e-07
0.000197396
0.12598
0.000177042
0.113962
-9.79628e-09
1.87105e-06
0.000293668
0.14103
-8.98788e-10
2.59639e-06
0.000326806
0.156216
2.46095e-06
0.000355735
0.168833
1.49084e-06
0.000377423
0.177883
-9.35194e-09
0.00038904
0.182611
-1.50928e-06
0.00038904
0.182611
-2.47861e-06
0.000377425
0.177883
-2.61295e-06
0.000355737
0.168832
-1.88595e-06
0.000326809
0.156216
0.000293671
0.14103
-1.36223e-08
4.64242e-06
0.000406992
0.158668
-1.20351e-09
6.72641e-06
0.000451318
0.176234
6.34107e-06
0.000489606
0.190747
3.80485e-06
0.00051791
0.201122
-1.21253e-08
0.000532974
0.20653
-3.82872e-06
0.000532974
0.20653
-6.36382e-06
0.000517912
0.201121
-6.74743e-06
0.00048961
0.190746
-4.66111e-06
0.000451322
0.176234
0.000406997
0.158668
-1.70278e-08
8.47864e-06
0.000496489
0.167652
-1.53259e-09
1.24248e-05
0.000547869
0.186903
1.17083e-05
0.000591671
0.20271
7.00807e-06
0.000623597
0.213966
-1.48314e-08
0.000640464
0.21982
-7.03721e-06
0.000640465
0.21982
-1.17359e-05
0.0006236
0.213966
-1.245e-05
0.000591675
0.20271
-8.50072e-06
0.000547874
0.186903
0.000496494
0.167652
-1.998e-08
1.32541e-05
0.000546623
0.168774
-1.89524e-09
1.9482e-05
0.000599491
0.189111
1.83484e-05
0.000643838
0.205698
1.09663e-05
0.000675674
0.217458
-1.74027e-08
0.00069235
0.223557
-1.10005e-05
0.000692351
0.223557
-1.83806e-05
0.000675677
0.217457
-1.9511e-05
0.000643842
0.205698
-1.32792e-05
0.000599496
0.189111
0.000546629
0.168774
-2.24851e-08
1.88049e-05
0.000549275
0.162833
-2.27062e-09
2.76219e-05
0.000597968
0.183757
2.59567e-05
0.000638023
0.200702
1.5481e-05
0.000666283
0.212655
-1.97365e-08
0.000680935
0.218835
-1.55196e-05
0.000680936
0.218835
-2.59929e-05
0.000666286
0.212655
-2.76542e-05
0.000638027
0.200702
-1.88323e-05
0.000597973
0.183757
0.00054928
0.162833
-2.44741e-08
2.50638e-05
0.000504585
0.150627
-2.67994e-09
3.65363e-05
0.000544713