/*--------------------------------*- C++ -*----------------------------------*\
| =========                 |                                                 |
| \\      /  F ield         | OpenFOAM: The Open Source CFD Toolbox           |
|  \\    /   O peration     | Version:  2106                                  |
|   \\  /    A nd           | Website:  www.openfoam.com                      |
|    \\/     M anipulation  |                                                 |
\*---------------------------------------------------------------------------*/
FoamFile
{
    version     2.0;
    format      ascii;
    arch        "LSB;label=32;scalar=64";
    class       volVectorField;
    location    "0.43";
    object      U;
}
// * * * * * * * * * * * * * * * * * * * * * * * * * * * * * * * * * * * * * //

dimensions      [0 1 -1 0 0 0 0];

internalField   nonuniform List<vector> 
10000
(
(0.0625626 0.0737203 0.345089)
(0.0533582 0.0838405 0.359568)
(0.0398487 0.0929917 0.370932)
(0.0247206 0.099374 0.37878)
(0.00837768 0.102674 0.382769)
(-0.0083777 0.102674 0.382769)
(-0.0247206 0.099374 0.37878)
(-0.0398488 0.0929917 0.370932)
(-0.0533582 0.0838405 0.359568)
(-0.0625626 0.0737203 0.345089)
(0.172047 0.204116 0.727831)
(0.145229 0.231355 0.747481)
(0.108421 0.255312 0.762121)
(0.0670801 0.271896 0.772019)
(0.0227064 0.280449 0.776968)
(-0.0227064 0.280449 0.776968)
(-0.0670802 0.271896 0.772019)
(-0.108421 0.255312 0.762121)
(-0.145229 0.231355 0.747481)
(-0.172047 0.204116 0.727831)
(0.22259 0.264307 0.923756)
(0.185787 0.296003 0.939585)
(0.137813 0.32368 0.950651)
(0.0848424 0.342614 0.957955)
(0.0286481 0.352315 0.961537)
(-0.0286482 0.352315 0.961537)
(-0.0848425 0.342614 0.957955)
(-0.137813 0.32368 0.950651)
(-0.185787 0.296003 0.939585)
(-0.22259 0.264307 0.923756)
(0.237559 0.281629 1.02289)
(0.196334 0.311482 1.03339)
(0.144735 0.337601 1.04006)
(0.0886898 0.355267 1.04432)
(0.0298791 0.36426 1.04636)
(-0.0298793 0.36426 1.04636)
(-0.0886899 0.355267 1.04432)
(-0.144735 0.337601 1.04006)
(-0.196334 0.311482 1.03339)
(-0.23756 0.281629 1.02289)
(0.235557 0.27876 1.07125)
(0.193074 0.304717 1.0772)
(0.141579 0.327564 1.08033)
(0.0864061 0.342882 1.08221)
(0.0290534 0.350631 1.08306)
(-0.0290535 0.350631 1.08306)
(-0.0864063 0.342882 1.08221)
(-0.141579 0.327564 1.08033)
(-0.193075 0.304717 1.0772)
(-0.235557 0.27876 1.07125)
(0.224476 0.265166 1.09233)
(0.182593 0.286514 1.09491)
(0.133254 0.305456 1.09556)
(0.0810234 0.318081 1.0958)
(0.0271952 0.324431 1.09585)
(-0.0271954 0.324431 1.09585)
(-0.0810236 0.318081 1.0958)
(-0.133254 0.305456 1.09556)
(-0.182593 0.286514 1.09491)
(-0.224477 0.265166 1.09233)
(0.208067 0.245157 1.09893)
(0.167956 0.261661 1.0992)
(0.122018 0.276451 1.09828)
(0.0739292 0.286288 1.09752)
(0.024772 0.291214 1.09709)
(-0.0247723 0.291214 1.09709)
(-0.0739294 0.286288 1.09752)
(-0.122018 0.276451 1.09828)
(-0.167956 0.261661 1.0992)
(-0.208067 0.245157 1.09893)
(0.188666 0.221468 1.09822)
(0.151115 0.233177 1.09704)
(0.109316 0.243809 1.09523)
(0.0660152 0.250915 1.09391)
(0.0220849 0.254472 1.09322)
(-0.0220852 0.254472 1.09322)
(-0.0660154 0.250915 1.09391)
(-0.109316 0.243809 1.09523)
(-0.151115 0.233177 1.09704)
(-0.188666 0.221468 1.09822)
(0.167814 0.195895 1.09422)
(0.133447 0.203004 1.09214)
(0.0961406 0.209612 1.08991)
(0.0578761 0.214157 1.08836)
(0.0193324 0.216452 1.08757)
(-0.0193326 0.216452 1.08757)
(-0.0578764 0.214157 1.08836)
(-0.0961409 0.209612 1.08991)
(-0.133448 0.203004 1.09214)
(-0.167814 0.195895 1.09422)
(0.146677 0.170088 1.08914)
(0.116159 0.171124 1.08659)
(0.083105 0.174347 1.08422)
(0.0498438 0.176696 1.08262)
(0.0166197 0.177904 1.08182)
(-0.01662 0.177904 1.08182)
(-0.0498441 0.176696 1.08262)
(-0.0831053 0.174347 1.08422)
(-0.11616 0.171124 1.08659)
(-0.146677 0.170088 1.08914)
(0.0111916 0.0142964 0.266586)
(0.00940227 0.0175861 0.278852)
(0.00709946 0.0202287 0.288896)
(0.00449402 0.0220403 0.295888)
(0.00153761 0.0229841 0.299466)
(-0.00153764 0.0229841 0.299466)
(-0.00449405 0.0220403 0.295888)
(-0.00709949 0.0202287 0.288896)
(-0.0094023 0.0175861 0.278852)
(-0.0111916 0.0142964 0.266586)
(0.0543666 0.0657837 0.629736)
(0.046682 0.0791448 0.651694)
(0.0357259 0.090593 0.669302)
(0.0225854 0.0987043 0.681412)
(0.00772877 0.102962 0.687559)
(-0.00772886 0.102962 0.687559)
(-0.0225854 0.0987042 0.681412)
(-0.035726 0.090593 0.669302)
(-0.0466821 0.0791448 0.651694)
(-0.0543666 0.0657837 0.629736)
(0.0976472 0.116639 0.876848)
(0.0833042 0.13794 0.900687)
(0.0634157 0.156219 0.919385)
(0.0398497 0.169118 0.932088)
(0.0135961 0.175854 0.938485)
(-0.0135963 0.175854 0.938485)
(-0.0398498 0.169118 0.932088)
(-0.0634158 0.156219 0.919385)
(-0.0833044 0.13794 0.900687)
(-0.0976472 0.116638 0.876848)
(0.133607 0.158419 1.04472)
(0.11301 0.184484 1.06673)
(0.0854738 0.206743 1.08357)
(0.0534052 0.222337 1.09487)
(0.0181691 0.230435 1.10052)
(-0.0181693 0.230435 1.10052)
(-0.0534054 0.222337 1.09487)
(-0.085474 0.206743 1.08357)
(-0.11301 0.184484 1.06673)
(-0.133607 0.158419 1.04472)
(0.159296 0.187807 1.1578)
(0.133581 0.215574 1.17641)
(0.100395 0.239127 1.19027)
(0.0624038 0.255508 1.19945)
(0.0211757 0.263967 1.204)
(-0.021176 0.263967 1.204)
(-0.062404 0.255508 1.19945)
(-0.100396 0.239127 1.19027)
(-0.133581 0.215574 1.17641)
(-0.159297 0.187807 1.1578)
(0.174773 0.204991 1.2328)
(0.145313 0.231978 1.24759)
(0.108551 0.254667 1.25828)
(0.0671487 0.27034 1.26525)
(0.0227313 0.27839 1.26867)
(-0.0227316 0.27839 1.26867)
(-0.067149 0.27034 1.26525)
(-0.108551 0.254667 1.25828)
(-0.145313 0.231977 1.24759)
(-0.174773 0.20499 1.2328)
(0.181111 0.211332 1.28154)
(0.14929 0.235646 1.2927)
(0.110863 0.255847 1.30049)
(0.0682678 0.269715 1.30549)
(0.0230579 0.276804 1.30791)
(-0.0230583 0.276804 1.30791)
(-0.0682682 0.269715 1.30549)
(-0.110864 0.255847 1.30049)
(-0.14929 0.235646 1.2927)
(-0.181111 0.211332 1.28154)
(0.179667 0.208479 1.31236)
(0.14681 0.228754 1.32039)
(0.1084 0.245323 1.32577)
(0.0664648 0.256642 1.32914)
(0.0224009 0.26241 1.33076)
(-0.0224014 0.26241 1.33076)
(-0.0664653 0.256642 1.32914)
(-0.1084 0.245323 1.32577)
(-0.14681 0.228754 1.32039)
(-0.179667 0.208479 1.31236)
(0.17191 0.198121 1.33112)
(0.139304 0.213439 1.33663)
(0.102273 0.225601 1.34013)
(0.0624395 0.233928 1.34226)
(0.0209995 0.238167 1.34325)
(-0.021 0.238167 1.34325)
(-0.06244 0.233928 1.34226)
(-0.102274 0.225601 1.34013)
(-0.139304 0.213439 1.33663)
(-0.171911 0.198121 1.33112)
(0.159418 0.183063 1.34195)
(0.128325 0.190864 1.34558)
(0.0934419 0.198291 1.34769)
(0.0567609 0.203412 1.3489)
(0.0190429 0.206017 1.34944)
(-0.0190435 0.206017 1.34944)
(-0.0567615 0.203412 1.3489)
(-0.0934424 0.198291 1.34769)
(-0.128326 0.190864 1.34558)
(-0.159418 0.183063 1.34195)
(0.00111743 0.00124772 0.157851)
(0.00112899 0.00159359 0.166161)
(0.000880076 0.00200065 0.1731)
(0.000589032 0.00230216 0.178012)
(0.00020524 0.00246922 0.180554)
(-0.000205272 0.00246922 0.180554)
(-0.000589062 0.00230216 0.178012)
(-0.000880105 0.00200064 0.1731)
(-0.00112902 0.00159358 0.166161)
(-0.00111745 0.00124771 0.157851)
(0.017952 0.0208315 0.44226)
(0.0161442 0.0254135 0.462492)
(0.0126346 0.029726 0.479106)
(0.00811422 0.0329109 0.490765)
(0.00279591 0.0346217 0.496766)
(-0.002796 0.0346217 0.496766)
(-0.00811432 0.0329109 0.490765)
(-0.0126347 0.0297259 0.479106)
(-0.0161443 0.0254134 0.462492)
(-0.017952 0.0208314 0.44226)
(0.0408925 0.0476 0.686168)
(0.0361139 0.0571824 0.71378)
(0.0280542 0.0659233 0.736091)
(0.0178695 0.0723138 0.751619)
(0.00613514 0.0757166 0.75957)
(-0.0061353 0.0757166 0.75957)
(-0.0178697 0.0723137 0.751619)
(-0.0280544 0.0659232 0.736091)
(-0.036114 0.0571824 0.71378)
(-0.0408926 0.0476 0.686168)
(0.0656091 0.076433 0.888991)
(0.0571797 0.0905272 0.920192)
(0.0440888 0.103137 0.94498)
(0.0279025 0.112258 0.962086)
(0.00955061 0.11708 0.970801)
(-0.00955084 0.11708 0.970801)
(-0.0279027 0.112258 0.962086)
(-0.0440891 0.103137 0.94498)
(-0.0571798 0.0905271 0.920192)
(-0.0656093 0.0764329 0.888991)
(0.0876462 0.101991 1.05412)
(0.0755142 0.119126 1.0861)
(0.0578103 0.13423 1.11108)
(0.0363796 0.145048 1.12816)
(0.0124182 0.15073 1.13682)
(-0.0124185 0.15073 1.13682)
(-0.0363799 0.145048 1.12816)
(-0.0578106 0.13423 1.11108)
(-0.0755144 0.119126 1.0861)
(-0.0876464 0.101991 1.05412)
(0.104779 0.121615 1.18644)
(0.0893237 0.140044 1.21729)
(0.0679113 0.156064 1.24097)
(0.0425123 0.167437 1.25703)
(0.0144745 0.173374 1.26513)
(-0.0144749 0.173374 1.26513)
(-0.0425126 0.167437 1.25703)
(-0.0679117 0.156064 1.24097)
(-0.089324 0.140044 1.21729)
(-0.104779 0.121615 1.18644)
(0.116175 0.134359 1.29107)
(0.0980284 0.152406 1.31963)
(0.0740263 0.167859 1.34118)
(0.0461082 0.17874 1.35567)
(0.0156602 0.184389 1.36295)
(-0.0156607 0.184389 1.36295)
(-0.0461086 0.17874 1.35567)
(-0.0740267 0.167859 1.34118)
(-0.0980288 0.152406 1.31963)
(-0.116176 0.134359 1.29107)
(0.121729 0.140133 1.3728)
(0.101677 0.156337 1.39846)
(0.07627 0.169965 1.41752)
(0.0472738 0.179489 1.43024)
(0.0160173 0.18441 1.43659)
(-0.0160178 0.18441 1.43659)
(-0.0472743 0.179489 1.43024)
(-0.0762705 0.169965 1.41752)
(-0.101678 0.156337 1.39846)
(-0.12173 0.140133 1.3728)
(0.121854 0.139393 1.43577)
(0.100775 0.152592 1.45841)
(0.0750682 0.16337 1.47498)
(0.0462893 0.170871 1.48591)
(0.0156435 0.17473 1.49134)
(-0.0156441 0.17473 1.49134)
(-0.0462898 0.170871 1.48591)
(-0.0750687 0.16337 1.47498)
(-0.100776 0.152592 1.45841)
(-0.121854 0.139393 1.43577)
(0.117378 0.133947 1.48338)
(0.0961291 0.141847 1.50351)
(0.0709028 0.148999 1.51768)
(0.04345 0.153951 1.52689)
(0.0146394 0.156485 1.53142)
(-0.01464 0.156485 1.53142)
(-0.0434506 0.153951 1.52689)
(-0.0709033 0.148999 1.51768)
(-0.0961296 0.141847 1.50351)
(-0.117378 0.133947 1.48338)
(0.000709044 0.000931802 0.138271)
(0.000553752 0.00116845 0.145097)
(0.000378916 0.00133609 0.150654)
(0.000234785 0.00143517 0.154555)
(7.85835e-05 0.00148471 0.156568)
(-7.86112e-05 0.00148471 0.156568)
(-0.000234812 0.00143517 0.154555)
(-0.000378942 0.00133608 0.150654)
(-0.000553777 0.00116843 0.145097)
(-0.000709066 0.000931785 0.138271)
(0.00697722 0.00834511 0.396468)
(0.00605701 0.0102862 0.414581)
(0.00465666 0.0119653 0.429242)
(0.00297038 0.0131702 0.439502)
(0.00102002 0.0138111 0.444782)
(-0.00102011 0.0138111 0.444782)
(-0.00297046 0.0131702 0.439502)
(-0.00465674 0.0119653 0.429242)
(-0.00605709 0.0102862 0.414581)
(-0.00697728 0.00834507 0.396468)
(0.0170948 0.0201889 0.63013)
(0.014909 0.0245795 0.656853)
(0.011536 0.0284318 0.678315)
(0.00734827 0.0312277 0.693271)
(0.00252332 0.0327146 0.700946)
(-0.00252346 0.0327146 0.700946)
(-0.00734842 0.0312276 0.693271)
(-0.0115362 0.0284318 0.678315)
(-0.0149091 0.0245794 0.656853)
(-0.0170949 0.0201888 0.63013)
(0.0293029 0.0344099 0.837273)
(0.0254722 0.0413892 0.869891)
(0.0196835 0.047512 0.895838)
(0.0124981 0.051951 0.913828)
(0.00428565 0.0543046 0.923032)
(-0.00428586 0.0543046 0.923031)
(-0.0124983 0.051951 0.913828)
(-0.0196837 0.047512 0.895838)
(-0.0254724 0.0413891 0.869891)
(-0.029303 0.0344098 0.837272)
(0.0415666 0.048593 1.0178)
(0.0359082 0.057707 1.05386)
(0.0276353 0.0656568 1.08223)
(0.0174772 0.0713912 1.1018)
(0.00598155 0.0744186 1.11177)
(-0.00598182 0.0744186 1.11177)
(-0.0174775 0.0713912 1.1018)
(-0.0276356 0.0656567 1.08223)
(-0.0359085 0.0577069 1.05386)
(-0.0415668 0.0485929 1.0178)
(0.0524122 0.061001 1.17285)
(0.0449315 0.071455 1.21028)
(0.0343959 0.0804878 1.2394)
(0.021657 0.0869599 1.25937)
(0.00739605 0.09036 1.26951)
(-0.00739639 0.09036 1.26951)
(-0.0216573 0.0869599 1.25937)
(-0.0343963 0.0804878 1.2394)
(-0.0449318 0.071455 1.21028)
(-0.0524124 0.0610009 1.17285)
(0.0608719 0.0705145 1.30421)
(0.0517361 0.0813648 1.34139)
(0.0393664 0.09062 1.36997)
(0.0246711 0.0972017 1.38946)
(0.00840594 0.100642 1.39933)
(-0.00840634 0.100642 1.39933)
(-0.0246715 0.0972016 1.38946)
(-0.0393668 0.0906199 1.36997)
(-0.0517364 0.0813647 1.34139)
(-0.0608722 0.0705144 1.30421)
(0.0663714 0.076472 1.41396)
(0.0558902 0.0867593 1.44968)
(0.0422531 0.0953895 1.47685)
(0.0263516 0.101477 1.49526)
(0.00895664 0.104642 1.50454)
(-0.0089571 0.104642 1.50454)
(-0.026352 0.101477 1.49526)
(-0.0422535 0.0953894 1.47685)
(-0.0558906 0.0867592 1.44968)
(-0.0663718 0.0764719 1.41396)
(0.0687292 0.0786272 1.50411)
(0.057323 0.0874895 1.53772)
(0.0430283 0.0947156 1.56295)
(0.0266903 0.0997764 1.5799)
(0.00904708 0.102393 1.5884)
(-0.0090476 0.102393 1.5884)
(-0.0266908 0.0997764 1.5799)
(-0.0430288 0.0947156 1.56295)
(-0.0573235 0.0874895 1.53772)
(-0.0687296 0.0786271 1.50411)
(0.0681357 0.0777629 1.57644)
(0.0562354 0.0836318 1.60819)
(0.0417837 0.0887347 1.63114)
(0.0257465 0.0922755 1.64635)
(0.00869835 0.0940924 1.65391)
(-0.00869889 0.0940924 1.65391)
(-0.025747 0.0922755 1.64635)
(-0.0417842 0.0887347 1.63114)
(-0.0562358 0.0836317 1.60818)
(-0.0681361 0.0777629 1.57644)
(0.000127087 0.000138673 0.127485)
(0.000117911 0.000182049 0.133853)
(8.70428e-05 0.000226688 0.139029)
(5.95188e-05 0.000257964 0.142667)
(2.05448e-05 0.000275682 0.144545)
(-2.05675e-05 0.00027568 0.144545)
(-5.9541e-05 0.000257959 0.142667)
(-8.70644e-05 0.000226679 0.139029)
(-0.000117931 0.000182037 0.133853)
(-0.000127105 0.000138658 0.127485)
(0.00245956 0.00284481 0.369653)
(0.00219998 0.00352718 0.386965)
(0.00172292 0.00415607 0.400987)
(0.00111337 0.00462389 0.410824)
(0.000384397 0.00487778 0.415893)
(-0.00038447 0.00487777 0.415893)
(-0.00111344 0.00462388 0.410824)
(-0.00172299 0.00415605 0.400987)
(-0.00220004 0.00352715 0.386965)
(-0.00245962 0.00284477 0.369653)
(0.00669887 0.00777181 0.59402)
(0.00595089 0.00952727 0.620272)
(0.00466366 0.0111218 0.641419)
(0.00299658 0.0123079 0.656213)
(0.00103305 0.012947 0.663822)
(-0.00103317 0.012947 0.663822)
(-0.0029967 0.0123079 0.656213)
(-0.00466377 0.0111218 0.641419)
(-0.00595099 0.00952722 0.620272)
(-0.00669896 0.00777176 0.59402)
(0.0122877 0.0142589 0.798997)
(0.0108433 0.0172873 0.832085)
(0.00847274 0.020012 0.858551)
(0.00542078 0.0220282 0.877)
(0.00186552 0.0231092 0.886468)
(-0.0018657 0.0231092 0.886468)
(-0.00542095 0.0220281 0.877)
(-0.0084729 0.0200119 0.858551)
(-0.0108434 0.0172872 0.832085)
(-0.0122878 0.0142588 0.798997)
(0.0183639 0.0212762 0.983785)
(0.0160869 0.0254891 1.02165)
(0.0125132 0.029244 1.05168)
(0.00797181 0.0320038 1.07253)
(0.00273806 0.0334762 1.08321)
(-0.00273829 0.0334762 1.08321)
(-0.00797204 0.0320038 1.07253)
(-0.0125134 0.029244 1.05168)
(-0.0160871 0.025489 1.02165)
(-0.0183641 0.0212761 0.983784)
(0.0241723 0.0279272 1.14823)
(0.0210055 0.0330201 1.18895)
(0.0162499 0.0375103 1.22095)
(0.0103062 0.0407855 1.24307)
(0.00353226 0.0425238 1.25437)
(-0.00353254 0.0425238 1.25437)
(-0.0103065 0.0407855 1.24307)
(-0.0162501 0.0375102 1.22095)
(-0.0210058 0.0330201 1.18895)
(-0.0241725 0.0279271 1.14823)
(0.0291121 0.0335082 1.29263)
(0.0250774 0.0390384 1.3345)
(0.0192807 0.0438502 1.36711)
(0.0121707 0.0473314 1.38954)
(0.00416156 0.0491689 1.40096)
(-0.00416189 0.0491689 1.40096)
(-0.0121711 0.0473313 1.38954)
(-0.019281 0.0438501 1.36711)
(-0.0250777 0.0390383 1.3345)
(-0.0291123 0.0335081 1.29263)
(0.0327441 0.0375049 1.41757)
(0.0279421 0.0429644 1.4592)
(0.0213395 0.0476377 1.4913)
(0.0134022 0.0509877 1.51327)
(0.00457102 0.0527457 1.52441)
(-0.0045714 0.0527457 1.52441)
(-0.0134026 0.0509877 1.51327)
(-0.0213398 0.0476377 1.4913)
(-0.0279424 0.0429643 1.4592)
(-0.0327444 0.0375048 1.41757)
(0.0348354 0.0396255 1.52371)
(0.0294295 0.0445172 1.56413)
(0.0223029 0.048586 1.59495)
(0.0139256 0.051474 1.61587)
(0.00473545 0.0529789 1.62641)
(-0.00473587 0.0529789 1.62641)
(-0.013926 0.051474 1.61587)
(-0.0223033 0.0485859 1.59495)
(-0.0294298 0.0445171 1.56413)
(-0.0348357 0.0396254 1.5237)
(0.0353657 0.0401725 1.61152)
(0.0295146 0.0436186 1.65089)
(0.0221192 0.0466012 1.67979)
(0.0137094 0.0486885 1.69912)
(0.00464478 0.0497655 1.70879)
(-0.00464523 0.0497655 1.70879)
(-0.0137098 0.0486885 1.69912)
(-0.0221196 0.0466012 1.67979)
(-0.029515 0.0436186 1.65089)
(-0.035366 0.0401725 1.61152)
(7.73573e-05 0.000104712 0.124626)
(5.38521e-05 0.000132889 0.130801)
(3.27553e-05 0.000149099 0.135788)
(1.99069e-05 0.000157 0.139288)
(6.44311e-06 0.000160743 0.141092)
(-6.46074e-06 0.000160742 0.141092)
(-1.99242e-05 0.000156996 0.139288)
(-3.27723e-05 0.000149092 0.135788)
(-5.38685e-05 0.00013288 0.130801)
(-7.73719e-05 0.0001047 0.124626)
(0.00100273 0.00119861 0.361453)
(0.000860247 0.00148691 0.378333)
(0.000657163 0.00172915 0.391946)
(0.000419356 0.00190277 0.401487)
(0.00014389 0.00199551 0.406401)
(-0.000143947 0.00199551 0.406401)
(-0.000419411 0.00190276 0.401487)
(-0.000657217 0.00172913 0.391946)
(-0.000860297 0.00148689 0.378333)
(-0.00100277 0.00119858 0.361453)
(0.00276278 0.00325394 0.582044)
(0.00241101 0.00400255 0.60788)
(0.00187079 0.00465514 0.628638)
(0.00119644 0.00513377 0.643157)
(0.000411574 0.00539033 0.650626)
(-0.000411672 0.00539032 0.650626)
(-0.00119653 0.00513375 0.643157)
(-0.00187088 0.00465512 0.628638)
(-0.0024111 0.00400251 0.607879)
(-0.00276285 0.00325389 0.582044)
(0.00517631 0.00605811 0.785572)
(0.00453054 0.00738487 0.818554)
(0.0035267 0.00855343 0.844915)
(0.00225359 0.009414 0.863305)
(0.000775211 0.00987489 0.872749)
(-0.00077535 0.00987488 0.872749)
(-0.00225372 0.00941398 0.863305)
(-0.00352683 0.0085534 0.844915)
(-0.00453066 0.00738482 0.818554)
(-0.00517641 0.00605806 0.785571)
(0.00792748 0.00923468 0.971466)
(0.00692307 0.01114 1.00978)
(0.00538251 0.0128186 1.04021)
(0.00343142 0.0140522 1.06137)
(0.00117915 0.014711 1.07221)
(-0.00117934 0.014711 1.07221)
(-0.00343159 0.0140522 1.06137)
(-0.00538268 0.0128185 1.04021)
(-0.00692323 0.0111399 1.00978)
(-0.00792762 0.00923461 0.971466)
(0.0106954 0.0124037 1.13942)
(0.00929399 0.0147822 1.18131)
(0.0072005 0.0168663 1.21433)
(0.00457519 0.0183903 1.23722)
(0.00156968 0.019201 1.24892)
(-0.0015699 0.019201 1.24892)
(-0.0045754 0.0183902 1.23721)
(-0.0072007 0.0168662 1.21433)
(-0.00929418 0.0147822 1.18131)
(-0.0106956 0.0124037 1.13942)
(0.0131853 0.0152194 1.28933)
(0.0113796 0.0178834 1.33316)
(0.00877266 0.0201949 1.36743)
(0.00555161 0.0218736 1.39108)
(0.00190084 0.0227624 1.40316)
(-0.00190111 0.0227624 1.40316)
(-0.00555187 0.0218736 1.39108)
(-0.0087729 0.0201948 1.36743)
(-0.0113798 0.0178834 1.33316)
(-0.0131855 0.0152194 1.28933)
(0.0151496 0.0173903 1.42123)
(0.0129687 0.0201 1.46554)
(0.0099378 0.0224186 1.49991)
(0.0062595 0.024088 1.52353)
(0.00213812 0.0249668 1.53554)
(-0.00213842 0.0249668 1.53554)
(-0.00625979 0.024088 1.52353)
(-0.00993807 0.0224186 1.49991)
(-0.012969 0.0201 1.46554)
(-0.0151498 0.0173903 1.42123)
(0.0164268 0.0187143 1.53512)
(0.0139318 0.0212166 1.57889)
(0.0105974 0.0233013 1.61247)
(0.00663678 0.0247868 1.63536)
(0.00226034 0.025563 1.64694)
(-0.00226067 0.025563 1.64694)
(-0.0066371 0.0247868 1.63536)
(-0.0105977 0.0233013 1.61247)
(-0.013932 0.0212166 1.57889)
(-0.016427 0.0187143 1.53512)
(0.0169586 0.0192878 1.63083)
(0.014208 0.02113 1.67415)
(0.010689 0.0227102 1.70616)
(0.00664456 0.0238192 1.72766)
(0.00225452 0.0243927 1.73845)
(-0.00225487 0.0243927 1.73845)
(-0.00664489 0.0238192 1.72766)
(-0.0106893 0.0227102 1.70616)
(-0.0142083 0.02113 1.67415)
(-0.0169588 0.0192878 1.63083)
(1.09345e-05 1.34396e-05 0.123197)
(7.27825e-06 1.85544e-05 0.129308)
(3.89893e-06 2.18964e-05 0.13424)
(2.8989e-06 2.3783e-05 0.137702)
(9.6292e-07 2.48755e-05 0.139488)
(-9.76261e-07 2.48745e-05 0.139488)
(-2.91199e-06 2.378e-05 0.137702)
(-3.9117e-06 2.18913e-05 0.13424)
(-7.29056e-06 1.85472e-05 0.129308)
(-1.09452e-05 1.34307e-05 0.123197)
(0.000338649 0.000395761 0.357413)
(0.000295395 0.000494332 0.374131)
(0.000228596 0.000580316 0.387606)
(0.000147494 0.000643796 0.397054)
(5.08451e-05 0.000678273 0.40192)
(-5.08876e-05 0.00067827 0.40192)
(-0.000147535 0.000643788 0.397054)
(-0.000228636 0.000580302 0.387606)
(-0.000295433 0.000494312 0.374131)
(-0.000338682 0.000395737 0.357412)
(0.00101515 0.00118143 0.576006)
(0.000894928 0.00146172 0.601664)
(0.000700217 0.00171104 0.622278)
(0.000450643 0.00189717 0.636703)
(0.000155467 0.0019979 0.644125)
(-0.00015554 0.0019979 0.644125)
(-0.000450715 0.00189716 0.636703)
(-0.000700285 0.00171102 0.622277)
(-0.000894992 0.00146169 0.601664)
(-0.0010152 0.00118139 0.576005)
(0.00199327 0.00231375 0.778463)
(0.00175925 0.00283702 0.81137)
(0.0013791 0.00330463 0.837683)
(0.000885774 0.00365384 0.856055)
(0.000305438 0.00384229 0.865495)
(-0.000305542 0.00384229 0.865495)
(-0.000885875 0.00365383 0.856055)
(-0.0013792 0.00330461 0.837683)
(-0.00175934 0.00283699 0.81137)
(-0.00199335 0.00231371 0.778462)
(0.00315788 0.00365467 0.964377)
(0.00277982 0.00443577 1.00284)
(0.00217581 0.00513263 1.03342)
(0.00139383 0.00565125 1.05471)
(0.000480094 0.00593019 1.06563)
(-0.00048023 0.00593018 1.06563)
(-0.00139396 0.00565123 1.05471)
(-0.00217594 0.0051326 1.03342)
(-0.00277993 0.00443573 1.00284)
(-0.00315798 0.00365462 0.964377)
(0.00437847 0.00504917 1.13346)
(0.00383545 0.00605598 1.17581)
(0.00299161 0.00694889 1.20926)
(0.00191006 0.00760973 1.23247)
(0.000656862 0.0079637 1.24436)
(-0.000657029 0.0079637 1.24436)
(-0.00191022 0.00760972 1.23247)
(-0.00299177 0.00694886 1.20926)
(-0.00383559 0.00605594 1.17581)
(-0.0043786 0.00504913 1.13346)
(0.00552392 0.00634305 1.2855)
(0.00480695 0.0075025 1.33016)
(0.0037311 0.0085209 1.36516)
(0.00237263 0.0092692 1.38938)
(0.000814312 0.00966803 1.40176)
(-0.000814508 0.00966803 1.40176)
(-0.00237282 0.00926919 1.38938)
(-0.00373129 0.00852087 1.36516)
(-0.00480711 0.00750246 1.33016)
(-0.00552406 0.00634301 1.2855)
(0.00647515 0.00739575 1.42034)
(0.00559005 0.00860512 1.46586)
(0.00431286 0.00965299 1.50128)
(0.00272955 0.0104158 1.52567)
(0.000934544 0.0108198 1.5381)
(-0.000934767 0.0108198 1.5381)
(-0.00272977 0.0104158 1.52567)
(-0.00431306 0.00965297 1.50128)
(-0.00559023 0.00860509 1.46586)
(-0.00647531 0.00739571 1.42034)
(0.0071466 0.00810181 1.53771)
(0.00611197 0.0092462 1.58303)
(0.00467959 0.0102111 1.61794)
(0.00294396 0.0109049 1.64179)
(0.00100485 0.0112694 1.65388)
(-0.0010051 0.0112694 1.65388)
(-0.0029442 0.0109049 1.64179)
(-0.00467981 0.010211 1.61794)
(-0.00611217 0.00924617 1.58303)
(-0.00714678 0.00810179 1.53771)
(0.00749601 0.00849207 1.6371)
(0.0063262 0.00936443 1.68233)
(0.0047877 0.0101114 1.71587)
(0.00298823 0.0106389 1.73847)
(0.00101589 0.0109127 1.74983)
(-0.00101615 0.0109127 1.74983)
(-0.00298848 0.0106389 1.73847)
(-0.00478794 0.0101114 1.71587)
(-0.00632642 0.00936443 1.68233)
(-0.0074962 0.00849206 1.6371)
(7.10542e-06 1.15015e-05 0.122839)
(2.73227e-06 1.5033e-05 0.128925)
(2.97686e-07 1.60147e-05 0.133832)
(-8.76406e-08 1.59573e-05 0.137276)
(-1.15464e-07 1.5818e-05 0.139051)
(1.05671e-07 1.58172e-05 0.139051)
(7.80755e-08 1.59551e-05 0.137276)
(-3.06898e-07 1.6011e-05 0.133832)
(-2.74129e-06 1.50278e-05 0.128925)
(-7.11293e-06 1.14951e-05 0.122839)
(0.000126695 0.0001545 0.356228)
(0.000104425 0.000193326 0.372874)
(7.7922e-05 0.000223652 0.38628)
(4.93085e-05 0.000244878 0.395677)
(1.68318e-05 0.000256132 0.400516)
(-1.68628e-05 0.000256129 0.400516)
(-4.93387e-05 0.000244872 0.395677)
(-7.79509e-05 0.000223642 0.38628)
(-0.000104453 0.000193312 0.372874)
(-0.000126718 0.000154482 0.356228)
(0.000382531 0.000453448 0.574094)
(0.000329528 0.000562869 0.599661)
(0.000254244 0.000655776 0.620188)
(0.000162426 0.000723856 0.634551)
(5.58354e-05 0.000760394 0.641941)
(-5.58885e-05 0.000760391 0.641941)
(-0.000162478 0.000723846 0.634551)
(-0.000254293 0.000655761 0.620187)
(-0.000329575 0.000562847 0.599661)
(-0.000382571 0.000453422 0.574094)
(0.000762884 0.000894429 0.776103)
(0.000665771 0.00110167 0.808947)
(0.000518589 0.00128244 0.8352)
(0.000332072 0.0014164 0.853532)
(0.000114345 0.00148848 0.862952)
(-0.000114421 0.00148848 0.862951)
(-0.000332145 0.00141639 0.853532)
(-0.000518659 0.00128242 0.835199)
(-0.000665837 0.00110164 0.808946)
(-0.000762941 0.000894398 0.776102)
(0.0012306 0.00143305 0.961963)
(0.00107731 0.00174869 1.00045)
(0.000841023 0.0020265 1.03104)
(0.000538295 0.00223269 1.05234)
(0.000185347 0.00234353 1.06328)
(-0.000185445 0.00234353 1.06328)
(-0.000538391 0.00223268 1.05234)
(-0.000841115 0.00202647 1.03104)
(-0.0010774 0.00174866 1.00045)
(-0.00123068 0.00143302 0.961962)
(0.00173735 0.00201204 1.13143)
(0.00151847 0.00242768 1.17394)
(0.00118383 0.00279343 1.20751)
(0.000756127 0.00306411 1.23083)
(0.000260096 0.00320921 1.24278)
(-0.000260216 0.0032092 1.24278)
(-0.000756245 0.0030641 1.23083)
(-0.00118394 0.00279341 1.20751)
(-0.00151858 0.00242765 1.17394)
(-0.00173744 0.002012 1.13143)
(0.00222945 0.00256824 1.28431)
(0.00193967 0.0030571 1.32928)
(0.00150679 0.00348463 1.36456)
(0.000959264 0.0037992 1.38898)
(0.000329431 0.00396709 1.40147)
(-0.000329572 0.00396709 1.40147)
(-0.000959403 0.00379919 1.38898)
(-0.00150692 0.00348461 1.36456)
(-0.00193979 0.00305707 1.32928)
(-0.00222955 0.0025682 1.28431)
(0.00265419 0.00303923 1.42036)
(0.00229389 0.0035597 1.46637)
(0.00177267 0.00400978 1.50221)
(0.00112367 0.00433807 1.52692)
(0.000385034 0.00451225 1.53952)
(-0.000385195 0.00451225 1.53952)
(-0.00112383 0.00433806 1.52692)
(-0.00177281 0.00400977 1.50221)
(-0.00229403 0.00355968 1.46637)
(-0.00265431 0.0030392 1.42036)
(0.00297024 0.00337376 1.53922)
(0.0025451 0.00387647 1.58521)
(0.00195269 0.0043003 1.62068)
(0.00123066 0.00460569 1.64496)
(0.000420431 0.00476635 1.65726)
(-0.000420607 0.00476634 1.65726)
(-0.00123083 0.00460568 1.64495)
(-0.00195285 0.00430029 1.62068)
(-0.00254525 0.00387645 1.58521)
(-0.00297037 0.00337374 1.53922)
(0.00315355 0.00357836 1.64025)
(0.00266715 0.00397218 1.68632)
(0.00202326 0.00430787 1.72055)
(0.00126516 0.00454533 1.74364)
(0.000430497 0.00466877 1.75525)
(-0.000430683 0.00466877 1.75525)
(-0.00126535 0.00454533 1.74364)
(-0.00202343 0.00430786 1.72055)
(-0.00266731 0.00397217 1.68632)
(-0.0031537 0.00357835 1.64024)
(-6.76802e-07 -1.4678e-07 0.122681)
(-1.61176e-06 2.43596e-07 0.128759)
(-1.74305e-06 2.86098e-08 0.133659)
(-1.14207e-06 -3.04099e-07 0.137098)
(-4.1357e-07 -4.94416e-07 0.138871)
(4.06581e-07 -4.9495e-07 0.138871)
(1.1353e-06 -3.05692e-07 0.137098)
(1.73654e-06 2.60596e-08 0.133659)
(1.60548e-06 2.39945e-07 0.128759)
(6.71686e-07 -1.51133e-07 0.122681)
(3.37488e-05 4.07354e-05 0.355717)
(2.75101e-05 5.19252e-05 0.372336)
(2.04732e-05 6.06943e-05 0.385719)
(1.30403e-05 6.69665e-05 0.395099)
(4.45543e-06 7.03391e-05 0.39993)
(-4.47741e-06 7.03376e-05 0.39993)
(-1.30616e-05 6.6962e-05 0.395099)
(-2.04936e-05 6.06873e-05 0.385719)
(-2.75295e-05 5.19152e-05 0.372336)
(-3.37646e-05 4.07235e-05 0.355716)
(0.000118114 0.000138817 0.573256)
(0.000102035 0.000174379 0.598786)
(7.91122e-05 0.000204887 0.619281)
(5.08021e-05 0.000227611 0.633622)
(1.74981e-05 0.000239915 0.641)
(-1.75357e-05 0.000239913 0.641)
(-5.08385e-05 0.000227604 0.633622)
(-7.91468e-05 0.000204876 0.61928)
(-0.000102068 0.000174364 0.598786)
(-0.000118142 0.0001388 0.573256)
(0.000252195 0.000293594 0.775032)
(0.000221269 0.000365176 0.807845)
(0.000173361 0.000428242 0.834072)
(0.000111534 0.000475617 0.852388)
(3.84856e-05 0.000501294 0.8618)
(-3.8539e-05 0.000501291 0.8618)
(-0.000111586 0.000475608 0.852388)
(-0.00017341 0.000428228 0.834072)
(-0.000221315 0.000365156 0.807845)
(-0.000252235 0.000293572 0.775031)
(0.000424899 0.000491702 0.960803)
(0.000374337 0.000605299 0.999283)
(0.00029404 0.000706254 1.02987)
(0.000189076 0.000782108 1.05118)
(6.52422e-05 0.000823156 1.06212)
(-6.53115e-05 0.000823153 1.06212)
(-0.000189143 0.000782099 1.05118)
(-0.000294104 0.000706238 1.02987)
(-0.000374397 0.000605278 0.999283)
(-0.000424951 0.000491678 0.960803)
(0.000619253 0.000712991 1.13036)
(0.000545005 0.000867351 1.17291)
(0.000427607 0.00100451 1.20653)
(0.000274392 0.00110718 1.22989)
(9.45923e-05 0.00116257 1.24185)
(-9.4677e-05 0.00116256 1.24185)
(-0.000274475 0.00110717 1.22989)
(-0.000427685 0.00100449 1.20653)
(-0.000545078 0.000867329 1.17291)
(-0.000619317 0.000712965 1.13036)
(0.000814737 0.000933298 1.2835)
(0.000714065 0.00111958 1.32858)
(0.000558298 0.00128411 1.36396)
(0.00035708 0.00140647 1.38847)
(0.000122896 0.00147218 1.401)
(-0.000122996 0.00147217 1.401)
(-0.000357177 0.00140647 1.38847)
(-0.00055839 0.00128409 1.36396)
(-0.000714151 0.00111956 1.32858)
(-0.000814813 0.000933274 1.2835)
(0.000989988 0.00112734 1.41999)
(0.000862127 0.00133014 1.46618)
(0.000670508 0.00150725 1.50219)
(0.000426951 0.00163771 1.52703)
(0.000146608 0.00170731 1.53969)
(-0.000146721 0.0017073 1.53969)
(-0.000427061 0.0016377 1.52703)
(-0.000670613 0.00150724 1.50219)
(-0.000862224 0.00133012 1.46618)
(-0.000990074 0.00112732 1.41999)
(0.00112732 0.00127347 1.53942)
(0.000973225 0.00147348 1.58567)
(0.000751235 0.0016436 1.62138)
(0.000475454 0.00176714 1.64582)
(0.000162748 0.00183242 1.65821)
(-0.000162872 0.00183242 1.65821)
(-0.000475575 0.00176713 1.64582)
(-0.000751351 0.00164359 1.62137)
(-0.000973332 0.00147347 1.58567)
(-0.00112742 0.00127345 1.53941)
(0.00121509 0.001373 1.64109)
(0.00103431 0.00153412 1.68751)
(0.000788919 0.00167104 1.72202)
(0.000495151 0.00176838 1.74532)
(0.000168771 0.00181914 1.75704)
(-0.000168903 0.00181914 1.75704)
(-0.00049528 0.00176838 1.74532)
(-0.000789042 0.00167103 1.72202)
(-0.00103443 0.00153411 1.68751)
(-0.00121519 0.00137299 1.64109)
(-3.23006e-08 6.82151e-07 0.12266)
(-8.33273e-07 1.03079e-06 0.128735)
(-1.02223e-06 8.61473e-07 0.133632)
(-7.4633e-07 5.78422e-07 0.137069)
(-2.78232e-07 3.96852e-07 0.138841)
(2.73401e-07 3.9648e-07 0.138841)
(7.41644e-07 5.77326e-07 0.137069)
(1.01781e-06 8.59691e-07 0.133632)
(8.29172e-07 1.02836e-06 0.128735)
(2.88915e-08 6.79341e-07 0.12266)
(9.18803e-06 1.23042e-05 0.355607)
(6.23611e-06 1.59252e-05 0.372216)
(3.9958e-06 1.81335e-05 0.385588)
(2.33225e-06 1.94802e-05 0.394961)
(7.55697e-07 2.01488e-05 0.399788)
(-7.70812e-07 2.01478e-05 0.399788)
(-2.34691e-06 1.94772e-05 0.394961)
(-4.0096e-06 1.81286e-05 0.385588)
(-6.24883e-06 1.59186e-05 0.372216)
(-9.19872e-06 1.22965e-05 0.355607)
(3.49827e-05 4.26208e-05 0.573043)