/*--------------------------------*- C++ -*----------------------------------*\
| =========                 |                                                 |
| \\      /  F ield         | OpenFOAM: The Open Source CFD Toolbox           |
|  \\    /   O peration     | Version:  2106                                  |
|   \\  /    A nd           | Website:  www.openfoam.com                      |
|    \\/     M anipulation  |                                                 |
\*---------------------------------------------------------------------------*/
FoamFile
{
    version     2.0;
    format      ascii;
    arch        "LSB;label=32;scalar=64";
    class       surfaceScalarField;
    location    "0.1";
    object      phi;
}
// * * * * * * * * * * * * * * * * * * * * * * * * * * * * * * * * * * * * * //

dimensions      [0 3 -1 0 0 0 0];

oriented        oriented;

internalField   nonuniform List<scalar> 
29100
(
0.00117713
0.149356
0.0818861
-2.29051e-10
0.00145253
0.154117
0.0899975
0.00124712
0.157444
0.0967767
0.000710612
0.159652
0.101631
-1.61455e-09
0.160759
0.10416
-0.000710616
0.160759
0.10416
-0.00124712
0.159652
0.101631
-0.00145254
0.157444
0.0967767
-0.00117713
0.154117
0.0899975
0.149356
0.0818861
-4.9335e-09
0.00233599
0.204437
0.158176
-2.513e-10
0.00324973
0.208601
0.171977
0.00290053
0.211329
0.183271
0.0016786
0.212996
0.191262
-3.69114e-09
0.213804
0.195394
-0.00167861
0.213804
0.195394
-0.00290054
0.212996
0.191262
-0.00324974
0.211329
0.183271
-0.002336
0.208601
0.171977
0.204437
0.158176
-1.149e-08
0.00294043
0.211894
0.188369
-4.43583e-10
0.00416224
0.214032
0.203708
0.00373767
0.215294
0.216059
0.00216508
0.215872
0.224718
-5.71388e-09
0.216112
0.22917
-0.00216509
0.216112
0.22917
-0.00373768
0.215872
0.224718
-0.00416225
0.215294
0.216059
-0.00294044
0.214032
0.203708
0.211894
0.188369
-1.69367e-08
0.00329884
0.195004
0.195532
-6.57693e-10
0.00459876
0.195175
0.210903
0.00411703
0.195057
0.22311
0.00237911
0.194671
0.231598
-7.96604e-09
0.194416
0.235941
-0.00237913
0.194416
0.235941
-0.00411705
0.194671
0.231598
-0.00459878
0.195057
0.22311
-0.00329886
0.195175
0.210903
0.195004
0.195532
-2.13479e-08
0.00343865
0.167202
0.189478
-1.00925e-09
0.00471873
0.165941
0.204287
0.00420712
0.164844
0.215907
0.00242591
0.163822
0.223927
-1.07383e-08
0.163248
0.228012
-0.00242593
0.163248
0.228012
-0.00420714
0.163822
0.223927
-0.00471875
0.164844
0.215907
-0.00343868
0.165941
0.204287
0.167202
0.189478
-2.53501e-08
0.00342094
0.136245
0.175824
-1.48432e-09
0.00463682
0.134153
0.189889
0.00411877
0.132522
0.200815
0.0023713
0.131198
0.208306
-1.40856e-08
0.130483
0.212108
-0.00237133
0.130483
0.212108
-0.0041188
0.131198
0.208306
-0.00463685
0.132522
0.200815
-0.00342097
0.134153
0.189889
0.136245
0.175824
-2.91831e-08
0.00332081
0.106377
0.15801
-1.90749e-09
0.00445778
0.103965
0.171355
0.00394701
0.102161
0.181639
0.0022701
0.100798
0.188648
-1.81536e-08
0.100081
0.192194
-0.00227014
0.100081
0.192194
-0.00394705
0.100798
0.188648
-0.00445781
0.102161
0.181639
-0.00332084
0.103965
0.171355
0.106377
0.15801
-3.29508e-08
0.00317892
0.0797037
0.13813
-2.38457e-09
0.00425221
0.0773145
0.150865
0.00376023
0.075594
0.160618
0.00216226
0.0743749
0.167231
-2.3418e-08
0.0737512
0.170568
-0.00216231
0.0737511
0.170568
-0.00376028
0.0743749
0.167231
-0.00425225
0.075594
0.160618
-0.00317896
0.0773145
0.150865
0.0797036
0.13813
-3.67482e-08
0.00304061
0.0570504
0.117423
-2.87091e-09
0.00408925
0.054868
0.129672
0.00361702
0.0534111
0.139006
0.00207889
0.0524513
0.145309
-2.99931e-08
0.0519761
0.148482
-0.00207895
0.0519761
0.148482
-0.00361707
0.0524513
0.145309
-0.0040893
0.0534111
0.139006
-0.00304065
0.0548679
0.129672
0.0570503
0.117423
-4.01979e-08
0.00315797
0.0965852
-3.83166e-09
0.0382909
0.00414995
0.108451
0.0366845
0.00361745
0.117459
0.0356283
0.00206011
0.123517
0.0349758
-3.72984e-08
0.126562
0.0346552
-0.00206018
0.126562
0.0346552
-0.00361751
0.123517
0.0349758
-0.00415001
0.117459
0.0356283
-0.00315802
0.108451
0.0366844
0.0965852
-4.26741e-08
0.0382909
-0.000239609
0.0344388
0.0476869
-3.84225e-10
-0.000238822
0.0373937
0.052603
-0.000167659
0.0398999
0.0568056
-8.32043e-05
0.0416869
0.0598595
-2.1165e-09
0.0426106
0.061466
8.32e-05
0.0426106
0.061466
0.000167654
0.0416869
0.0598595
0.000238817
0.0398999
0.0568056
0.000239603
0.0373937
0.052603
0.0344388
0.0476869
-6.493e-09
2.15954e-05
0.07359
0.119003
-1.11486e-09
0.00019225
0.0786447
0.130556
0.000247615
0.0828572
0.140258
0.000170612
0.0857917
0.147235
-5.52114e-09
0.0872941
0.150881
-0.000170623
0.0872941
0.150881
-0.000247627
0.0857917
0.147235
-0.000192264
0.0828572
0.140258
-2.16104e-05
0.0786447
0.130556
0.07359
0.119003
-1.58838e-08
0.000484768
0.0987501
0.162724
-1.40896e-09
0.0008437
0.10412
0.177873
0.000838146
0.108527
0.190395
0.000516334
0.11152
0.199312
-8.6252e-09
0.113034
0.203946
-0.000516352
0.113034
0.203946
-0.000838165
0.11152
0.199312
-0.000843721
0.108527
0.190395
-0.000484791
0.10412
0.177873
0.09875
0.162724
-2.40074e-08
0.00097879
0.109078
0.184225
-1.69633e-09
0.00150261
0.113634
0.200865
0.0014214
0.117312
0.214406
0.000851492
0.119732
0.223956
-1.18991e-08
0.120938
0.228889
-0.000851516
0.120938
0.228889
-0.00142143
0.119732
0.223956
-0.00150264
0.117312
0.214406
-0.00097882
0.113634
0.200865
0.109078
0.184225
-3.06193e-08
0.0014269
0.107506
0.189624
-2.05925e-09
0.0020753
0.110791
0.206482
0.00191746
0.113384
0.219993
0.00113259
0.115015
0.229429
-1.56761e-08
0.115808
0.234274
-0.00113262
0.115808
0.234274
-0.00191749
0.115015
0.229429
-0.00207533
0.113384
0.219993
-0.00142694
0.110791
0.206482
0.107506
0.189624
-3.63294e-08
0.00179476
0.0978061
0.183729
-2.54396e-09
0.00253097
0.0998167
0.200126
0.00230512
0.10134
0.213085
0.00135001
0.102229
0.222048
-2.02141e-08
0.102641
0.226625
-0.00135005
0.102641
0.226625
-0.00230516
0.102229
0.222048
-0.00253101
0.10134
0.213085
-0.0017948
0.0998167
0.200126
0.0978061
0.183729
-4.11702e-08
0.00207165
0.0834613
0.170283
-3.10086e-09
0.00287073
0.0844243
0.185948
0.00259275
0.085082
0.198176
0.00151104
0.085397
0.206561
-2.57846e-08
0.0855239
0.210822
-0.00151109
0.0855239
0.210822
-0.0025928
0.085397
0.206561
-0.00287078
0.085082
0.198176
-0.0020717
0.0844243
0.185948
0.0834613
0.170283
-4.52629e-08
0.00226264
0.0672238
0.152105
-4.20326e-09
0.00311854
0.0674206
0.167013
0.0028083
0.0674777
0.178532
0.00163329
0.0674276
0.186375
-3.24361e-08
0.0673822
0.190343
-0.00163335
0.0673822
0.190343
-0.00280836
0.0674276
0.186375
-0.0031186
0.0674777
0.178532
-0.00226269
0.0674206
0.167013
0.0672238
0.152105
-4.87012e-08
0.00240708
0.051028
0.131211
-5.81543e-09
0.00333339
0.0507067
0.145459
0.00300102
0.0504359
0.15638
0.00174301
0.050223
0.163771
-4.00508e-08
0.0501101
0.167498
-0.00174309
0.0501101
0.167498
-0.00300109
0.050223
0.163771
-0.00333346
0.0504359
0.15638
-0.00240713
0.0507067
0.145459
0.051028
0.131211
-5.07514e-08
0.00267327
0.108954
-7.25113e-09
0.0359856
0.00366034
0.122676
0.0354946
0.00326079
0.133128
0.0351661
0.00187983
0.140165
0.0349566
-4.70479e-08
0.143702
0.0348499
-0.00187992
0.143702
0.0348499
-0.00326087
0.140165
0.0349566
-0.00366041
0.133128
0.0351661
-0.00267332
0.122676
0.0354946
0.108954
-4.98446e-08
0.0359856
4.35339e-05
0.00813139
0.039512
-2.59154e-10
4.11245e-05
0.00897051
0.0436349
3.36136e-05
0.0096852
0.0471279
1.85017e-05
0.0102145
0.0496601
-1.977e-09
0.0104934
0.0509911
-1.85056e-05
0.0104934
0.0509911
-3.36179e-05
0.0102145
0.0496601
-4.11294e-05
0.0096852
0.0471279
-4.35395e-05
0.00897051
0.0436349
0.00813139
0.039512
-6.14005e-09
0.000252191
0.0240583
0.102824
-4.68488e-10
0.000338899
0.0261257
0.113314
0.000300563
0.0278559
0.122125
0.000174748
0.0290955
0.128479
-5.23013e-09
0.0297413
0.131808
-0.000174759
0.0297413
0.131808
-0.000300575
0.0290955
0.128479
-0.000338912
0.0278559
0.122125
-0.000252205
0.0261257
0.113314
0.0240583
0.102824
-1.51992e-08
0.000500123
0.0394244
0.146858
-8.04195e-10
0.000703453
0.042255
0.161541
0.000634176
0.0445825
0.173737
0.0003708
0.0462034
0.182467
-8.13252e-09
0.0470377
0.18702
-0.000370817
0.0470377
0.18702
-0.000634194
0.0462034
0.182467
-0.000703472
0.0445825
0.173737
-0.000500144
0.042255
0.161541
0.0394244
0.146858
-2.29385e-08
0.000759709
0.0497885
0.173101
-1.26022e-09
0.00108157
0.0527411
0.190057
0.000983255
0.0551281
0.203959
0.000575936
0.0567449
0.213821
-1.11724e-08
0.0575657
0.218937
-0.000575959
0.0575657
0.218937
-0.000983279
0.0567449
0.213821
-0.00108159
0.0551281
0.203959
-0.000759736
0.0527411
0.190057
0.0497885
0.173101
-2.91474e-08
0.00101068
0.0541708
0.184231
-1.84711e-09
0.00143522
0.0567692
0.202029
0.00130712
0.058831
0.216419
0.000765372
0.0601853
0.22653
-1.45799e-08
0.0608615
0.231744
-0.000765402
0.0608615
0.231744
-0.00130715
0.0601853
0.22653
-0.00143525
0.058831
0.216419
-0.00101071
0.0567692
0.202029
0.0541708
0.184231
-3.42919e-08
0.00124051
0.0532522
0.183407
-2.62458e-09
0.00174708
0.0552551
0.201134
0.00158872
0.0568051
0.215269
0.000929083
0.0577859
0.225107
-1.8489e-08
0.0582654
0.23015
-0.00092912
0.0582654
0.23015
-0.00158876
0.0577859
0.225107
-0.00174712
0.0568051
0.215269
-0.00124054
0.0552551
0.201134
0.0532522
0.183407
-3.83295e-08
0.0014367
0.048382
0.173716
-3.542e-09
0.00200816
0.0497373
0.190894
0.00182276
0.0507466
0.20442
0.00106484
0.0513553
0.21375
-2.31137e-08
0.0516449
0.218508
-0.00106489
0.0516449
0.218508
-0.00182281
0.0513553
0.21375
-0.0020082
0.0507466
0.20442
-0.00143674
0.0497373
0.190894
0.048382
0.173716
-4.11798e-08
0.00159297
0.0410346
0.15786
-4.76377e-09
0.00222164
0.0417995
0.174322
0.00201584
0.0423399
0.187145
0.00117722
0.0426465
0.195923
-2.83868e-08
0.0427878
0.200378
-0.00117728
0.0427878
0.200378
-0.00201589
0.0426466
0.195923
-0.00222169
0.0423399
0.187145
-0.00159301
0.0417995
0.174322
0.0410346
0.15786
-4.25896e-08
0.00172506
0.0325207
0.138
-6.62714e-09
0.0024127
0.032804
0.153767
0.00218863
0.0330046
0.16594
0.00127698
0.033112
0.174217
-3.38551e-08
0.0331601
0.178402
-0.00127704
0.0331601
0.178402
-0.00218869
0.033112
0.174217
-0.00241275
0.0330046
0.16594
-0.0017251
0.032804
0.153767
0.0325207
0.138
-4.19023e-08
0.00191577
0.115742
-8.56447e-09
0.023817
0.0026468
0.130923
0.0238254
0.00238048
0.142553
0.0238454
0.00138094
0.150415
0.0238612
-3.80169e-08
0.154376
0.0238672
-0.00138101
0.154376
0.0238672
-0.00238055
0.150415
0.0238612
-0.00264685
0.142553
0.0238454
-0.00191581
0.130923
0.0238254
0.115742
-3.85969e-08
0.023817
-3.19385e-05
0.00308118
0.0364628
-2.24286e-10
-4.50809e-05
0.00338978
0.0402583
-3.75638e-05
0.00365379
0.0434666
-2.09571e-05
0.00384864
0.0457948
-1.58779e-09
0.00395055
0.0470196
2.09537e-05
0.00395055
0.0470196
3.75601e-05
0.00384864
0.0457948
4.50767e-05
0.0036538
0.0434666
3.19339e-05
0.00338978
0.0402583
0.00308118
0.0364628
-5.0507e-09
-1.38458e-05
0.00906171
0.0968571
-5.84937e-10
-1.71724e-05
0.00989824
0.106809
-1.10872e-05
0.0106108
0.115162
-4.26232e-06
0.0111263
0.121195
-4.31902e-09
0.0113956
0.124359
4.25323e-06
0.0113956
0.124359
1.10774e-05
0.0111263
0.121195
1.71612e-05
0.0106108
0.115162
1.38341e-05
0.00989824
0.106809
0.00906172
0.0968571
-1.24801e-08
5.43477e-05
0.0154692
0.140397
-9.08687e-10
8.46306e-05
0.0167606
0.154648
8.34806e-05
0.0178496
0.1665
5.20798e-05
0.0186232
0.175002
-6.90238e-09
0.0190248
0.179443
-5.20939e-05
0.0190248
0.179443
-8.34957e-05
0.0186232
0.175002
-8.46473e-05
0.0178496
0.1665
-5.43654e-05
0.0167606
0.154648
0.0154692
0.140397
-1.88904e-08
0.000155772
0.0206213
0.167793
-1.30281e-09
0.000233196
0.0221432
0.184597
0.000221205
0.0234097
0.198411
0.000133427
0.0242925
0.20824
-9.39472e-09
0.0247469
0.213348
-0.000133446
0.0247469
0.213348
-0.000221225
0.0242925
0.20824
-0.000233218
0.0234097
0.198411
-0.000155794
0.0221432
0.184597
0.0206213
0.167793
-2.39724e-08
0.00027714
0.0236676
0.180907
-1.77532e-09
0.000405724
0.0251822
0.198862
0.000379494
0.0264216
0.213433
0.000226295
0.027268
0.223708
-1.20133e-08
0.027699
0.229018
-0.000226319
0.027699
0.229018
-0.000379519
0.027268
0.223708
-0.00040575
0.0264217
0.213433
-0.000277166
0.0251822
0.198862
0.0236676
0.180907
-2.80884e-08
0.000406312
0.0244374
0.182231
-2.34462e-09
0.000584764
0.0257676
0.20037
0.000542107
0.0268319
0.214901
0.000321207
0.0275421
0.225053
-1.48893e-08
0.0278993
0.230271
-0.000321237
0.0278993
0.230271
-0.000542138
0.0275421
0.225053
-0.000584794
0.0268319
0.214901
-0.000406342
0.0257676
0.20037
0.0244374
0.182231
-3.11335e-08
0.000532365
0.023197
0.174424
-3.07209e-09
0.000757803
0.0242442
0.192192
0.000698703
0.0250573
0.206253
0.000412457
0.0255865
0.215992
-1.81523e-08
0.0258492
0.22097
-0.000412494
0.0258492
0.22097
-0.000698738
0.0255865
0.215992
-0.000757837
0.0250573
0.206253
-0.000532397
0.0242442
0.192192
0.023197
0.174424
-3.3033e-08
0.000648639
0.0204392
0.159969
-4.20642e-09
0.000920296
0.0211704
0.177124
0.000846471
0.0217199
0.190556
0.000498639
0.0220699
0.199787
-2.15101e-08
0.0222419
0.204484
-0.000498681
0.0222419
0.204484
-0.000846511
0.0220699
0.199787
-0.000920333
0.0217199
0.190556
-0.000648672
0.0211704
0.177124
0.0204392
0.159969
-3.36296e-08
0.000761698
0.0167246
0.140953
-5.76037e-09
0.00108167
0.0171563
0.157461
0.000992254
0.0174791
0.17027
0.000582966
0.0176843
0.179012
-2.46891e-08
0.0177851
0.183442
-0.000583014
0.0177851
0.183442
-0.000992298
0.0176843
0.179012
-0.00108171
0.0174792
0.17027
-0.00076173
0.0171563
0.157461
0.0167246
0.140953
-3.24772e-08
0.000906979
0.118995
-7.43183e-09
0.0125653
0.00127116
0.134941
0.0127741
0.00115458
0.147208
0.0129406
0.000673745
0.155527
0.0130529
-2.67367e-08
0.159726
0.0131082
-0.000673797
0.159726
0.0131082
-0.00115462
0.155527
0.0130529
-0.0012712
0.147208
0.0129406
-0.000907008
0.134941
0.0127742
0.118995
-2.8799e-08
0.0125653
5.77292e-06
0.000777242
0.0356797
-1.84138e-10
4.27113e-06
0.000868063
0.0393917
3.35259e-06
0.000947957
0.0425196
1.73747e-06
0.00100944
0.044787
-1.45791e-09
0.00104232
0.0459791
-1.74029e-06
0.00104232
0.0459791
-3.3557e-06
0.00100944
0.044787
-4.2744e-06
0.000947957
0.0425196
-5.77647e-06
0.000868063
0.0393917
0.000777242
0.0356797
-3.90002e-09
2.74546e-05
0.00282956
0.0947773
-3.92661e-10
3.39352e-05
0.00312266
0.104547
2.95753e-05
0.00337632
0.112738
1.70427e-05
0.00356432
0.118653
-3.88e-09
0.00366393
0.121754
-1.70501e-05
0.00366393
0.121754
-2.95834e-05
0.00356432
0.118653
-3.39437e-05
0.00337632
0.112738
-2.74638e-05
0.00312266
0.104547
0.00282956
0.0947773
-9.78937e-09
6.0944e-05
0.00538806
0.137777
-6.89596e-10
8.36199e-05
0.00589215
0.151856
7.53364e-05
0.00632256
0.163562
4.41256e-05
0.00663416
0.171963
-5.81482e-09
0.00679786
0.176353
-4.41371e-05
0.00679786
0.176353
-7.53489e-05
0.00663416
0.171963
-8.36329e-05
0.00632256
0.163562
-6.09579e-05
0.00589215
0.151856
0.00538806
0.137777
-1.47392e-08
0.000105994
0.00773272
0.165343
-1.01932e-09
0.000150779
0.00838166
0.182063
0.000138108
0.00892833
0.195818
8.13866e-05
0.00931642
0.205614
-7.6461e-09
0.00951844
0.210709
-8.14021e-05
0.00951844
0.210709
-0.000138124
0.00931642
0.205614
-0.000150796
0.00892834
0.195818
-0.000106012
0.00838166
0.182063
0.00773272
0.165343
-1.86827e-08
0.000160278
0.00939528
0.179084
-1.45568e-09
0.000230183
0.0100936
0.19708
0.000212146
0.010673
0.211706
0.000125251
0.0110765
0.222034
-9.48601e-09
0.0112845
0.227377
-0.00012527
0.0112845
0.227377
-0.000212166
0.0110765
0.222034
-0.000230204
0.010673
0.211706
-0.000160299
0.0100936
0.19708
0.00939529
0.179084
-2.18325e-08
0.000220438
0.0101629
0.181243
-1.97585e-09
0.000316272
0.0108216
0.199546
0.000291863
0.011358
0.214241
0.000172326
0.0117244
0.224525
-1.14059e-08
0.0119112
0.229817
-0.000172349
0.0119112
0.229817
-0.000291886
0.0117244
0.224525
-0.000316295
0.011358
0.214241
-0.000220461
0.0108216
0.199546
0.0101629
0.181243
-2.41363e-08
0.000282401
0.0100309
0.174274
-2.58666e-09
0.000403839
0.0105859
0.192307
0.000372583
0.0110278
0.206615
0.000219888
0.0113237
0.216545
-1.34831e-08
0.0114729
0.221629
-0.000219915
0.0114729
0.221629
-0.00037261
0.0113237
0.216545
-0.000403865
0.0110278
0.206615
-0.000282425
0.0105859
0.192307
0.0100309
0.174274
-2.54916e-08
0.000342908
0.00913685
0.16052
-3.28551e-09
0.00048983
0.0095536
0.17801
0.000451747
0.00987793
0.191744
0.000266429
0.0100915
0.201205
-1.56106e-08
0.0101982
0.206025
-0.000266459
0.0101982
0.206025
-0.000451776
0.0100915
0.201205
-0.000489858
0.00987794
0.191744
-0.000342933
0.0095536
0.17801
0.00913685
0.16052
-2.55865e-08
0.000403186
0.00769587
0.141991
-4.28806e-09
0.000575536
0.00796766
0.158875
0.000529589
0.0081775
0.172016
0.000311722
0.00831483
0.181007
-1.74952e-08
0.00838321
0.185569
-0.000311756
0.00838321
0.185569
-0.00052962
0.00831483
0.181007
-0.000575565
0.0081775
0.172016
-0.00040321
0.00796767
0.158875
0.00769587
0.141991
-2.43014e-08
0.000472056
0.120275
-5.38263e-09
0.00594371
0.000665673
0.136621
0.00609459
0.00060811
0.149231
0.00621229
0.000356233
0.157802
0.00629223
-1.85715e-08
0.162134
0.00633217
-0.000356269
0.162134
0.00633217
-0.000608142
0.157802
0.00629224
-0.000665701
0.149231
0.0062123
-0.000472078
0.136621
0.0060946
0.120275
-2.1836e-08
0.00594371
-5.20307e-06
0.000383362
0.0353016
-1.44322e-10
-7.76738e-06
0.000420741
0.0389735
-6.63275e-06
0.000452056
0.0420664
-3.76947e-06
0.00047536
0.0443088
-1.17192e-09
0.000487535
0.0454878
3.76698e-06
0.000487535
0.0454878
6.63021e-06
0.00047536
0.0443088
7.7647e-06
0.000452056
0.0420664
5.20036e-06
0.000420741
0.0389735
0.000383362
0.0353016
-2.81119e-09
-5.10507e-06
0.00122911
0.0939367
-4.06127e-10
-7.87835e-06
0.00134842
0.103623
-6.77538e-06
0.00144969
0.11174
-3.74765e-06
0.00152397
0.117601
-3.07156e-09
0.001563
0.120675
3.74105e-06
0.001563
0.120675
6.76891e-06
0.00152397
0.117601
7.87142e-06
0.00144969
0.11174
5.0982e-06
0.00134842
0.103623
0.00122911
0.0939367
-6.95183e-09
3.34716e-06
0.0022742
0.136729
-5.92603e-10
4.80573e-06
0.00248665
0.150716
4.91873e-06
0.00266703
0.162344
3.2462e-06
0.00279746
0.170692
-4.76996e-09
0.0028659
0.175054
-3.256e-06
0.0028659
0.175054
-4.9286e-06
0.00279746
0.170692
-4.81599e-06
0.00266703
0.162344
-3.35742e-06
0.00248665
0.150716
0.0022742
0.136729
-1.06139e-08
1.89521e-05
0.00327572
0.164322
-7.94223e-10
2.80537e-05
0.00356267
0.180978
2.67388e-05
0.00380457
0.194681
1.62278e-05
0.00397716
0.204445
-6.23315e-09
0.00406721
0.209524
-1.62404e-05
0.00406722
0.209524
-2.67516e-05
0.00397716
0.204445
-2.80671e-05
0.00380457
0.194681
-1.89654e-05
0.00356267
0.180978
0.00327572
0.164322
-1.36183e-08
4.06534e-05
0.00404166
0.178278
-1.03959e-09
5.98236e-05
0.0043671
0.196256
5.63633e-05
0.00463827
0.210876
3.37977e-05
0.00482892
0.221205
-7.58967e-09
0.00492767
0.22655
-3.38129e-05
0.00492767
0.22655
-5.63788e-05
0.00482892
0.221205
-5.98393e-05
0.00463827
0.210876
-4.06689e-05
0.0043671
0.196256
0.00404166
0.178278
-1.60745e-08
6.69016e-05
0.00445873
0.180759
-1.31947e-09
9.75792e-05
0.00478298
0.1991
9.13904e-05
0.00504885
0.213836
5.45117e-05
0.00523283
0.224158
-8.89374e-09
0.00532733
0.229472
-5.45294e-05
0.00532733
0.229472
-9.14083e-05
0.00523284
0.224158
-9.7597e-05
0.00504886
0.213836
-6.69189e-05
0.00478298
0.1991
0.00445873
0.180759
-1.78969e-08
9.59046e-05
0.00449257
0.174144
-1.70296e-09
0.000138946
0.00478192
0.192265
0.000129663
0.00501448
0.206658
7.71065e-05
0.00517282
0.216658
-1.01736e-08
0.00525344
0.22178
-7.71267e-05
0.00525344
0.22178
-0.000129683
0.00517282
0.216658
-0.000138965
0.00501448
0.206658
-9.59231e-05
0.00478192
0.192265
0.00449257
0.174144
-1.90505e-08
0.000126265
0.00417357
0.160713
-2.30078e-09
0.000182496
0.004405
0.17833
0.000169899
0.00458741
0.192184
0.0001008
0.00470989
0.201737
-1.13217e-08
0.00477177
0.206607
-0.000100822
0.00477177
0.206607
-0.000169921
0.00470989
0.201737
-0.000182517
0.00458742
0.192184
-0.000126283
0.004405
0.17833
0.00417357
0.160713
-1.94069e-08
0.000158925
0.00357612
0.142429
-3.01723e-09
0.000229027
0.00373975
0.15947
0.000212244
0.00386762
0.172753
0.000125471
0.00395284
0.181851
-1.23707e-08
0.00399569
0.18647
-0.000125496
0.00399569
0.18647
-0.000212267
0.00395284
0.181851
-0.000229047
0.00386762
0.172753
-0.000158944
0.00373975
0.15947
0.00357612
0.142429
-1.87882e-08
0.000197886
0.120856
-3.51313e-09
0.00279717
0.000281074
0.13738
0.00289782
0.000258173
0.150145
0.00297718
0.00015173
0.15883
0.00303131
-1.31826e-08
0.163223
0.00305853
-0.000151756
0.163223
0.00305853
-0.000258196
0.15883
0.00303131
-0.000281094
0.150144
0.00297718
-0.000197903
0.13738
0.00289782
0.120856
-1.70365e-08
0.00279717
7.85163e-07
9.56794e-05
0.0352051
-9.32331e-11
4.94656e-07
0.000107007
0.0388668
3.9249e-07
0.000117033
0.0419495
1.9671e-07
0.000124943
0.044184
-1.05542e-09
0.000129206
0.0453587
-1.98707e-07
0.000129207
0.0453587
-3.9449e-07
0.000124943
0.044184
-4.96581e-07
0.000117033
0.0419495
-7.87093e-07
0.000107007
0.0388668
9.56796e-05
0.0352051
-1.99417e-09
3.48427e-06
0.000389251
0.0936396
-1.7895e-10
4.0431e-06
0.000431501
0.103298
3.47563e-06
0.00046833
0.111389
1.984e-06
0.000496088
0.117231
-2.69966e-09
0.000510914
0.120295
-1.98908e-06
0.000510915
0.120295
-3.48086e-06
0.000496088
0.117231
-4.04802e-06
0.00046833
0.111389
-3.48914e-06
0.000431501
0.103298
0.000389252
0.0936396
-4.96377e-09
8.20741e-06
0.000794177
0.136316
-3.09914e-10
1.0998e-05
0.000874919
0.15027
9.86069e-06
0.000944594
0.161869
5.76236e-06
0.00099592
0.170196
-3.92326e-09
0.00102314
0.174547
-5.77007e-06
0.00102314
0.174547
-9.86854e-06
0.00099592
0.170196
-1.10056e-05
0.000944594
0.161869
-8.21488e-06
0.00087492
0.15027
0.000794177
0.136316
-7.62138e-09
1.53546e-05
0.00120853
0.163893
-4.56017e-10
2.16905e-05
0.00132287
0.180524
1.98829e-05
0.00142055
0.194207
1.17299e-05
0.00149132
0.203958
-4.9519e-09
0.00152858
0.20903
-1.17398e-05
0.00152858
0.20903
-1.98928e-05
0.00149132
0.203958
-2.17002e-05
0.00142055
0.194207
-1.53641e-05
0.00132287
0.180524
0.00120853
0.163893
-9.76606e-09
2.49181e-05
0.00154838
0.177913
-6.43061e-10
3.5853e-05
0.0016831
0.195885
3.31833e-05
0.00179681
0.210502
1.96522e-05
0.00187793
0.220832
-5.87052e-09
0.0019203
0.226178
-1.9664e-05
0.0019203
0.226178
-3.3195e-05
0.00187793
0.220832
-3.58645e-05
0.00179681
0.210502
-2.49294e-05
0.0016831
0.195885
0.00154838
0.177913
-1.15505e-08
3.65729e-05
0.00175814
0.180513
-8.79356e-10
5.28634e-05
0.0018968
0.19887
4.91038e-05
0.00201212
0.213625
2.91183e-05
0.00209313
0.223963
-6.73202e-09
0.00213509
0.229286
-2.91318e-05
0.00213509
0.229286
-4.91172e-05
0.00209313
0.223963
-5.28766e-05
0.00201212
0.213625
-3.65856e-05
0.0018968
0.19887
0.00175814
0.180513
-1.29119e-08
4.97167e-05
0.00181346
0.174039
-1.16752e-09
7.18735e-05
0.00194081
0.192198
6.68369e-05
0.00204486
0.206631
3.964e-05
0.00211682
0.216661
-7.60033e-09
0.00215378
0.2218
-3.96552e-05
0.00215378
0.2218
-6.68518e-05
0.00211682
0.216661
-7.1888e-05
0.00204486
0.206631
-4.97306e-05
0.00194081
0.192198
0.00181346
0.174039
-1.38134e-08
6.37472e-05
0.00171844
0.160744
-1.39769e-09
9.21567e-05
0.00182316
0.17842
8.56758e-05
0.00190719
0.192328
5.07749e-05
0.00196449
0.201924
-8.46586e-09
0.00199366
0.206818
-5.07917e-05
0.00199366
0.206818
-8.56922e-05
0.00196449
0.201924
-9.21723e-05
0.00190719
0.192328
-6.37618e-05
0.00182316
0.17842
0.00171844
0.160744
-1.41484e-08
7.86797e-05
0.00149898
0.14257
-1.63601e-09
0.000113425
0.0015754
0.159683
0.000105103
0.00163582
0.173033
6.21372e-05
0.00167655
0.182181
-9.23222e-09
0.00169713
0.186829
-6.21553e-05
0.00169713
0.186829
-0.00010512
0.00167655
0.182181
-0.000113442
0.00163582
0.173033
-7.86946e-05
0.0015754
0.159683
0.00149898
0.14257
-1.38473e-08
9.45259e-05
0.121065
-1.96695e-09
0.00119511
0.000134837
0.137671
0.00124332
0.000124264
0.15051
0.0012811
7.32002e-05
0.15925
0.00130698
-9.73804e-09
0.163673
0.00132005
-7.32193e-05
0.163673
0.00132005
-0.000124282
0.15925
0.00130698
-0.000134853
0.15051
0.0012811
-9.45403e-05
0.137671
0.00124332
0.121065
-1.29859e-08
0.00119511
-1.10485e-06
5.89468e-05
0.0351473
-6.9515e-11
-1.6081e-06
6.44369e-05
0.0388029
-1.37451e-06
6.89225e-05
0.0418803
-7.81808e-07
7.22458e-05
0.0441112
-7.89566e-10
7.39703e-05
0.045284
7.80163e-07
7.39701e-05
0.045284
1.37293e-06
7.22457e-05
0.0441112
1.60659e-06
6.89225e-05
0.0418803
1.10349e-06
6.44369e-05
0.0388029
5.89469e-05
0.0351473
-1.33297e-09
-1.47214e-06
0.000192598
0.0935074
-1.6353e-10
-2.19744e-06
0.00021126
0.103151
-1.92249e-06
0.00022693
0.111231
-1.08692e-06
0.000238443
0.117064
-1.98904e-09
0.000244496
0.120124
1.08276e-06
0.000244496
0.120124
1.91852e-06
0.000238443
0.117064
2.19358e-06
0.00022693
0.111231
1.46868e-06
0.00021126
0.103151
0.000192598
0.0935074
-3.32736e-09
-3.32288e-07
0.000366064
0.136142
-2.50118e-10
-5.16113e-07
0.0004014
0.15008
-3.85236e-07
0.000431275
0.161665
-1.67484e-07
0.000453007
0.169981
-3.00976e-09
0.000464451
0.174327
1.614e-07
0.000464451
0.174327
3.79311e-07
0.000453007
0.169981
5.10154e-07
0.000431275
0.161665
3.26706e-07
0.0004014
0.15008
0.000366064
0.136142
-5.23666e-09
2.13415e-06
0.000543789
0.163713
-3.32988e-10
3.1736e-06
0.000594519
0.180329
3.07752e-06
0.000637326
0.194001
1.89498e-06
0.000668148
0.203744
-3.7941e-09
0.000684321
0.208812
-1.90257e-06
0.000684321
0.208812
-3.08505e-06
0.000668148
0.203744
-3.18103e-06
0.000637326
0.194001
-2.14116e-06
0.000594519
0.180329
0.000543789
0.163713
-6.76093e-09
5.879e-06
0.000692741
0.177758
-4.26389e-10
8.6903e-06
0.000753882
0.195723
8.24383e-06
0.000805078
0.210335
4.96871e-06
0.000841513
0.220662
-4.45735e-09
0.000860524
0.226007
-4.97759e-06
0.000860524
0.226007
-8.25273e-06
0.000841514
0.220662
-8.6991e-06
0.000805078
0.210335
-5.88739e-06
0.000753881
0.195723
0.00069274
0.177758
-8.10547e-09
1.07141e-05
0.000788702
0.180406
-5.26422e-10
1.57335e-05
0.000853372
0.198765
1.48265e-05
0.000906867
0.213524
8.87986e-06
0.00094445
0.223866
-5.03826e-09
0.000963924
0.229191
-8.88991e-06
0.000963924
0.229191
-1.48365e-05
0.00094445
0.223866
-1.57435e-05
0.000906867
0.213524
-1.07236e-05
0.000853372
0.198765
0.000788702
0.180406
-9.18065e-09
1.63947e-05
0.000818931
0.173993
-6.3184e-10
2.39633e-05
0.000880146
0.192164
2.25074e-05
0.00093
0.206609
1.34378e-05
0.000964552
0.21665
-5.54917e-09
0.000982324
0.221796
-1.34489e-05
0.000982324
0.221796
-2.25184e-05
0.000964553
0.21665
-2.39741e-05
0.00093
0.206609
-1.6405e-05
0.000880146
0.192164
0.00081893
0.173993
-9.97517e-09
2.27107e-05
0.000782279
0.160758
-7.87254e-10
3.3135e-05
0.000834303
0.178455
3.10401e-05
0.000876021
0.192384
1.84837e-05
0.000904567
0.201996
-5.96495e-09
0.000919137
0.2069
-1.84956e-05
0.000919138
0.2069
-3.10518e-05
0.000904568
0.201996
-3.31463e-05
0.000876022
0.192384
-2.27212e-05
0.000834302
0.178455
0.000782279
0.160758
-1.04009e-08
2.98333e-05
0.000687333
0.142635
-1.03628e-09
4.33041e-05
0.000726765
0.159777
4.03375e-05
0.000758027
0.173154
2.39217e-05
0.000779192
0.182323
-6.35499e-09
0.00078992
0.186982
-2.39343e-05
0.00078992
0.186982
-4.03495e-05
0.000779193
0.182323
-4.33154e-05
0.000758028
0.173153
-2.98436e-05
0.000726764
0.159777
0.000687333
0.142635
-1.03435e-08
3.80656e-05
0.121165
-1.18449e-09
0.000549835
5.44995e-05
0.137806
0.00057587
5.03805e-05
0.150675
0.000596499
2.97288e-05
0.159439
0.000610652
-6.82746e-09
0.163875
0.00061782
-2.97421e-05
0.163875
0.00061782
-5.03928e-05
0.159439
0.000610652
-5.45106e-05
0.150675
0.000596499
-3.80755e-05
0.137806
0.000575869
0.121165
-9.97024e-09
0.000549834
7.01423e-08
1.3963e-05
0.0351332
-3.3286e-11
3.26018e-09
1.5667e-05
0.0387873
-6.07468e-09
1.72125e-05
0.0418631
-8.17877e-09
1.84498e-05
0.0440927
-6.11463e-10
1.91229e-05
0.0452649
7.09609e-09
1.9123e-05
0.0452649
4.94906e-09
1.845e-05
0.0440927
-4.21279e-09
1.72125e-05
0.0418631
-7.10657e-08
1.56671e-05
0.0387873
1.39632e-05
0.0351332
-9.09141e-10
4.05052e-07
6.06671e-05
0.0934603
-5.61853e-11
4.10978e-07
6.74787e-05
0.1031
3.37396e-07
7.34766e-05
0.111174
1.86816e-07
7.8046e-05
0.117005
-1.54883e-09
8.04989e-05
0.120063
-1.89814e-07
8.0499e-05
0.120063
-3.40303e-07
7.80462e-05
0.117005
-4.13645e-07
7.34767e-05
0.111174
-4.07473e-07
6.74789e-05
0.1031
6.06675e-05
0.0934603
-2.28472e-09
1.1259e-06
0.000128166
0.136074
-1.10241e-10
1.45339e-06
0.000141791
0.150006
1.28527e-06
0.000153637
0.161585
7.45855e-07
0.000162454
0.169897
-2.2578e-09
0.000167155
0.174241
-7.50312e-07
0.000167155
0.174241
-1.28963e-06
0.000162454
0.169897
-1.45747e-06
0.000153637
0.161585
-1.12967e-06
0.000141791
0.150006
0.000128166
0.136074
-3.5918e-09
2.32714e-06
0.000200592
0.163638
-1.51278e-10
3.23696e-06
0.000220726
0.18025
2.95117e-06
0.000238055
0.193917
1.73673e-06
0.000250752
0.203657
-2.81018e-09
0.000257477
0.208724
-1.74232e-06
0.000257477
0.208724
-2.95665e-06
0.000250752
0.203657
-3.24218e-06
0.000238056
0.193917
-2.33201e-06
0.000220726
0.18025
0.000200593
0.163638
-4.66609e-09
4.03444e-06
0.000263644
0.177691
-1.84657e-10
5.76577e-06
0.000288379
0.195653
5.32627e-06
0.000309434
0.210264
3.15239e-06
0.000324647
0.22059
-3.2601e-09
0.000332649
0.225935
-3.1589e-06
0.000332649
0.225935
-5.33267e-06
0.000324647
0.22059
-5.77195e-06
0.000309434
0.210264
-4.04025e-06
0.000288379
0.195653
0.000263645
0.177691
-5.60965e-09
6.21548e-06
0.000306574
0.180357
-2.33691e-10
8.97008e-06
0.000333109
0.198718
8.33437e-06
0.000355395
0.213478
4.94454e-06
0.000371275
0.223823
-3.64894e-09
0.000379565
0.229149
-4.95184e-06
0.000379565
0.229149
-8.34157e-06
0.000371275
0.223823
-8.97706e-06
0.000355395
0.213478
-6.22207e-06
0.00033311
0.198718
0.000306575
0.180357
-6.34723e-09
8.78111e-06
0.000323315
0.173967
-3.18704e-10
1.27191e-05
0.000348711
0.192145
1.18477e-05
0.0003697
0.206596
7.03469e-06
0.000384443
0.216642
-4.01569e-09
0.000392077
0.22179
-7.04269e-06
0.000392077
0.22179
-1.18556e-05
0.000384443
0.216642
-1.27267e-05
0.0003697
0.206596
-8.78834e-06
0.000348711
0.192145
0.000323316
0.173967
-6.87262e-09
1.16285e-05
0.000312701
0.160757
-4.12927e-10
1.68712e-05
0.000334503
0.178464
1.57205e-05
0.000352211
0.192403
9.32961e-06
0.000364469
0.202023
-4.37643e-09
0.000370759
0.206931
-9.3383e-06
0.000370759
0.206931
-1.57291e-05
0.000364469
0.202023
-1.68794e-05
0.000352211
0.192403
-1.16362e-05
0.000334503