/*--------------------------------*- C++ -*----------------------------------*\
| =========                 |                                                 |
| \\      /  F ield         | OpenFOAM: The Open Source CFD Toolbox           |
|  \\    /   O peration     | Version:  2106                                  |
|   \\  /    A nd           | Website:  www.openfoam.com                      |
|    \\/     M anipulation  |                                                 |
\*---------------------------------------------------------------------------*/
FoamFile
{
    version     2.0;
    format      ascii;
    arch        "LSB;label=32;scalar=64";
    class       surfaceScalarField;
    location    "0.1";
    object      phi;
}
// * * * * * * * * * * * * * * * * * * * * * * * * * * * * * * * * * * * * * //

dimensions      [0 3 -1 0 0 0 0];

oriented        oriented;

internalField   nonuniform List<scalar> 
29100
(
0.000875021
0.103359
0.0631153
-1.71322e-10
0.0010843
0.106406
0.069354
0.000931671
0.108482
0.0745698
0.000530872
0.109846
0.0783013
-1.00549e-09
0.110525
0.0802442
-0.000530872
0.110525
0.0802442
-0.000931672
0.109846
0.0783013
-0.0010843
0.108482
0.0745698
-0.000875024
0.106406
0.069354
0.103359
0.0631153
-3.34036e-09
0.00168286
0.137364
0.119546
-6.08189e-10
0.00233695
0.139657
0.129812
0.00208255
0.141035
0.138211
0.00120346
0.141827
0.144142
-2.60542e-09
0.142201
0.147204
-0.00120346
0.142201
0.147204
-0.00208256
0.141827
0.144142
-0.00233696
0.141035
0.138211
-0.00168286
0.139657
0.129812
0.137364
0.119546
-6.13464e-09
0.00205782
0.138441
0.139984
-5.22609e-10
0.00290891
0.139192
0.151081
0.00260589
0.139449
0.160007
0.00150646
0.139423
0.166247
-2.71855e-09
0.139372
0.169449
-0.00150646
0.139372
0.169449
-0.0026059
0.139423
0.166247
-0.00290892
0.139449
0.160007
-0.00205783
0.139192
0.151081
0.138441
0.139984
-9.40732e-09
0.0022444
0.124128
0.143072
-5.35797e-10
0.00312743
0.123578
0.153946
0.00279254
0.122945
0.162567
0.00161022
0.122305
0.168541
-2.91433e-09
0.121942
0.17159
-0.00161023
0.121942
0.17159
-0.00279255
0.122305
0.168541
-0.00312744
0.122945
0.162567
-0.00224441
0.123578
0.153946
0.124128
0.143072
-1.17608e-08
0.00228019
0.103962
0.136774
-7.55786e-10
0.00312953
0.102595
0.147099
0.0027837
0.101443
0.155186
0.00160187
0.100477
0.16075
-3.71319e-09
0.0999525
0.163579
-0.00160188
0.0999525
0.163579
-0.00278371
0.100477
0.16075
-0.00312954
0.101443
0.155186
-0.00228021
0.102595
0.147099
0.103962
0.136774
-1.42689e-08
0.00221984
0.0830015
0.125513
-1.02841e-09
0.00300889
0.0812588
0.135261
0.00266765
0.0799095
0.142822
0.00153323
0.0788546
0.147995
-5.30435e-09
0.0782939
0.150617
-0.00153324
0.0782939
0.150617
-0.00266767
0.0788546
0.147995
-0.0030089
0.0799095
0.142822
-0.00221986
0.0812588
0.135261
0.0830015
0.125513
-1.6643e-08
0.00211764
0.0637058
0.111835
-1.54851e-09
0.00284119
0.0619089
0.121089
0.00251207
0.0605791
0.128217
0.00144297
0.0595914
0.133069
-7.81345e-09
0.0590762
0.135523
-0.00144298
0.0590762
0.135523
-0.00251209
0.0595913
0.133069
-0.00284121
0.0605791
0.128217
-0.00211766
0.0619089
0.121089
0.0637058
0.111835
-1.87629e-08
0.00199857
0.0470855
0.0971635
-1.96614e-09
0.00267025
0.0454175
0.106032
0.00235927
0.0442318
0.112825
0.00135568
0.0433988
0.117431
-1.14076e-08
0.0429751
0.119756
-0.0013557
0.0429751
0.119756
-0.0023593
0.0433988
0.117431
-0.00267027
0.0442318
0.112825
-0.00199859
0.0454175
0.106032
0.0470854
0.0971635
-2.13068e-08
0.00188651
0.0333726
0.0822527
-1.8769e-09
0.00253465
0.0319063
0.0908239
0.00224154
0.0309392
0.0973624
0.0012882
0.0303062
0.10178
-1.57078e-08
0.0299946
0.104005
-0.00128823
0.0299946
0.104005
-0.00224157
0.0303062
0.10178
-0.00253468
0.0309392
0.0973624
-0.00188653
0.0319063
0.0908239
0.0333726
0.0822527
-2.34967e-08
0.00194667
0.0674817
-2.08635e-09
0.0222552
0.00254478
0.0758065
0.0212115
0.00221666
0.0821358
0.020518
0.00126196
0.0863983
0.0200949
-2.10895e-08
0.0885421
0.0198883
-0.001262
0.0885421
0.0198883
-0.00221669
0.0863983
0.0200949
-0.00254482
0.0821358
0.020518
-0.0019467
0.0758065
0.0212115
0.0674817
-2.52898e-08
0.0222552
-0.000183945
0.0228679
0.0404313
-3.72222e-10
-0.000184744
0.0247831
0.0445717
-0.00013054
0.0263972
0.0481183
-6.5019e-05
0.0275409
0.0506948
-3.50346e-10
0.0281298
0.0520493
6.50176e-05
0.0281298
0.0520493
0.000130539
0.0275409
0.0506948
0.000184741
0.0263972
0.0481183
0.000183942
0.0247831
0.0445717
0.0228679
0.0404313
-3.85379e-09
-5.91167e-05
0.0467617
0.0957115
-3.00932e-10
3.75984e-05
0.0498161
0.104682
8.98326e-05
0.0523401
0.112216
7.21877e-05
0.0540802
0.11762
-1.27924e-09
0.0549667
0.120439
-7.2191e-05
0.0549667
0.120439
-8.98372e-05
0.0540802
0.11762
-3.76034e-05
0.0523401
0.112216
5.91105e-05
0.0498161
0.104682
0.0467617
0.0957115
-8.22799e-09
0.000190827
0.0605296
0.126025
-5.11127e-10
0.000391099
0.0635718
0.137125
0.000412226
0.0660445
0.146282
0.000261108
0.0677002
0.152779
-2.5094e-09
0.0685319
0.156144
-0.000261113
0.0685319
0.156144
-0.000412233
0.0677002
0.152779
-0.000391107
0.0660445
0.146282
-0.000190838
0.0635718
0.137125
0.0605296
0.126025
-1.26382e-08
0.000454844
0.0649568
0.13819
-5.82047e-10
0.000738856
0.0673867
0.149848
0.000717553
0.0693293
0.159303
0.000435655
0.070581
0.165942
-4.19072e-09
0.0711976
0.16936
-0.000435662
0.0711976
0.16936
-0.000717562
0.070581
0.165942
-0.000738868
0.0693293
0.159303
-0.000454857
0.0673867
0.149848
0.0649568
0.13819
-1.56095e-08
0.000687679
0.0625729
0.13847
-6.63861e-10
0.00102882
0.064225
0.14992
0.000964617
0.0655168
0.159063
0.000574209
0.0663025
0.165419
-5.92087e-09
0.0666774
0.168673
-0.000574219
0.0666774
0.168673
-0.000964629
0.0663025
0.165419
-0.00102883
0.0655168
0.159063
-0.000687695
0.064225
0.14992
0.0625729
0.13847
-1.82749e-08
0.000872094
0.0559323
0.131282
-8.29411e-10
0.00124861
0.0568811
0.142228
0.00114719
0.0575914
0.150849
0.00067512
0.0579788
0.156791
-8.08717e-09
0.0581515
0.159818
-0.000675134
0.0581515
0.159818
-0.00114721
0.0579788
0.156791
-0.00124862
0.0575914
0.150849
-0.000872112
0.0568811
0.142228
0.0559323
0.131282
-2.06605e-08
0.00100533
0.0471104
0.119652
-1.07032e-09
0.00140422
0.0475215
0.13005
0.00127537
0.0477913
0.138146
0.00074573
0.0478934
0.143684
-1.0772e-08
0.0479262
0.146494
-0.00074575
0.0479262
0.146494
-0.00127539
0.0478934
0.143684
-0.00140424
0.0477913
0.138146
-0.00100536
0.0475215
0.13005
0.0471104
0.119652
-2.25358e-08
0.00109306
0.0375967
0.105584
-1.7035e-09
0.00151421
0.0376307
0.115501
0.00136973
0.0376092
0.123152
0.000798803
0.0375429
0.128353
-1.43138e-08
0.0374988
0.130982
-0.000798831
0.0374988
0.130982
-0.00136976
0.0375429
0.128353
-0.00151424
0.0376092
0.123152
-0.00109308
0.0376307
0.115501
0.0375967
0.105584
-2.41676e-08
0.00116533
0.0283478
0.0903362
-3.19945e-09
0.00162298
0.028127
0.09987
0.00146687
0.027958
0.10717
0.000853778
0.0278298
0.112106
-1.87466e-08
0.0277637
0.114594
-0.000853815
0.0277637
0.114594
-0.0014669
0.0278298
0.112106
-0.00162301
0.027958
0.10717
-0.00116536
0.028127
0.09987
0.0283478
0.0903362
-2.36448e-08
0.00135187
0.0746469
-4.96086e-09
0.0198308
0.00184306
0.0838845
0.0195577
0.00163974
0.0909144
0.0193827
0.000944121
0.0956459
0.0192778
-2.1558e-08
0.0980246
0.0192253
-0.000944164
0.0980246
0.0192253
-0.00163978
0.0956459
0.0192778
-0.0018431
0.0909144
0.0193827
-0.0013519
0.0838845
0.0195577
0.0746469
-2.15593e-08
0.0198308
4.89836e-05
0.00458718
0.0357952
-2.24145e-11
5.19224e-05
0.00506911
0.0394996
4.2801e-05
0.00548072
0.0426467
2.37631e-05
0.00578691
0.044927
-3.56765e-10
0.00594883
0.0461243
-2.37641e-05
0.00594884
0.0461243
-4.28021e-05
0.00578691
0.044927
-5.19248e-05
0.00548072
0.0426467
-4.89862e-05
0.00506911
0.0394996
0.00458718
0.0357952
-3.5391e-09
0.000193083
0.0135546
0.086551
-1.57059e-10
0.000256043
0.0147019
0.0949865
0.000224938
0.0156608
0.102067
0.000129878
0.0163473
0.107155
-1.36075e-09
0.0167053
0.109813
-0.00012988
0.0167053
0.109813
-0.000224941
0.0163473
0.107155
-0.000256049
0.0156608
0.102067
-0.000193089
0.0147019
0.0949865
0.0135546
0.086551
-7.00486e-09
0.000342276
0.0219482
0.117289
-2.10961e-10
0.000476393
0.0234534
0.128239
0.000426524
0.0246874
0.137305
0.000248139
0.0255426
0.143762
-2.10963e-09
0.0259825
0.147115
-0.000248143
0.0259825
0.147115
-0.00042653
0.0255426
0.143762
-0.000476401
0.0246874
0.137305
-0.000342285
0.0234534
0.128239
0.0219482
0.117289
-1.07301e-08
0.000486117
0.0272843
0.132368
-4.19215e-10
0.00068799
0.0287852
0.144314
0.000622426
0.0299957
0.154061
0.000363268
0.0308084
0.160935
-2.89213e-09
0.03122
0.164486
-0.000363274
0.03122
0.164486
-0.000622433
0.0308084
0.160935
-0.000688001
0.0299957
0.154061
-0.000486129
0.0287852
0.144314
0.0272843
0.132368
-1.35259e-08
0.000617663
0.0292287
0.135908
-8.89929e-10
0.000874871
0.0304873
0.14796
0.000794252
0.031487
0.157652
0.000463877
0.0321347
0.164423
-4.00282e-09
0.0324567
0.167901
-0.000463886
0.0324567
0.167901
-0.000794262
0.0321347
0.164423
-0.000874883
0.031487
0.157652
-0.000617678
0.0304873
0.14796
0.0292287
0.135908
-1.59169e-08
0.000733633
0.0283328
0.131444
-1.26901e-09
0.00103245
0.0292499
0.143166
0.000937002
0.0299647
0.152467
0.000546991
0.0304078
0.158908
-5.7809e-09
0.0306226
0.162199
-0.000547003
0.0306226
0.162199
-0.000937015
0.0304078
0.158908
-0.00103246
0.0299647
0.152467
-0.000733649
0.0292499
0.143166
0.0283328
0.131444
-1.75953e-08
0.000829735
0.0254328
0.121722
-1.57906e-09
0.00115952
0.0260063
0.132964
0.00105118
0.0264402
0.141779
0.000613366
0.0266931
0.147837
-8.11024e-09
0.0268116
0.150918
-0.000613383
0.0268116
0.150918
-0.0010512
0.0266931
0.147837
-0.00115954
0.0264402
0.141779
-0.000829752
0.0260064
0.132964
0.0254328
0.121722
-1.85398e-08
0.000903628
0.0213585
0.108755
-2.60479e-09
0.00125986
0.0216351
0.119516
0.00114235
0.0218361
0.127873
0.000666645
0.0219427
0.133579
-1.07617e-08
0.0219901
0.13647
-0.000666667
0.0219902
0.13647
-0.00114237
0.0219427
0.133579
-0.00125988
0.0218361
0.127873
-0.000903645
0.0216351
0.119516
0.0213585
0.108755
-1.89818e-08
0.000964003
0.016805
0.0939256
-4.05378e-09
0.00134807
0.0168491
0.104272
0.00122237
0.0168893
0.112242
0.00071296
0.016905
0.117653
-1.3424e-08
0.016911
0.120386
-0.000712986
0.016911
0.120386
-0.00122239
0.016905
0.117653
-0.00134809
0.0168893
0.112242
-0.000964019
0.0168491
0.104272
0.016805
0.0939256
-1.77017e-08
0.00106287
0.078134
-4.80372e-09
0.0122551
0.00146037
0.0881413
0.0121948
0.00131149
0.0957967
0.0121558
0.000760201
0.100967
0.012135
-1.55649e-08
0.103571
0.0121243
-0.000760231
0.103571
0.0121243
-0.00131152
0.100967
0.012135
-0.00146039
0.0957967
0.0121558
-0.00106288
0.0881413
0.0121948
0.078134
-1.46287e-08
0.0122551
-2.48173e-05
0.00194614
0.0338738
-1.47285e-10
-3.43278e-05
0.00213322
0.0373759
-2.86541e-05
0.00228957
0.0403515
-1.5901e-05
0.00240312
0.0425111
-2.17392e-10
0.00246211
0.0436462
1.59001e-05
0.00246211
0.0436462
2.86526e-05
0.00240312
0.0425111
3.43263e-05
0.00228957
0.0403515
2.48152e-05
0.00213322
0.0373759
0.00194614
0.0338738
-2.96438e-09
-2.05908e-05
0.00541085
0.0831068
-4.91166e-11
-2.60334e-05
0.00588606
0.0912391
-1.97301e-05
0.00628322
0.0980669
-9.7233e-06
0.00656687
0.102981
-4.14902e-10
0.00671412
0.105551
9.7209e-06
0.00671412
0.105551
1.97268e-05
0.00656687
0.102981
2.603e-05
0.00628322
0.0980669
2.05861e-05
0.00588606
0.0912391
0.00541086
0.0831069
-5.81996e-09
1.26039e-05
0.00891685
0.113771
-1.17166e-10
2.54695e-05
0.0096197
0.124493
2.85648e-05
0.0102043
0.133381
1.92375e-05
0.0106141
0.139724
-1.49893e-09
0.0108256
0.143023
-1.92413e-05
0.0108256
0.143023
-2.85697e-05
0.0106141
0.139724
-2.54751e-05
0.0102043
0.133381
-1.26113e-05
0.0096197
0.124493
0.00891686
0.113771
-8.95333e-09
6.31088e-05
0.0115941
0.129628
-1.63868e-10
0.000100236
0.0123956
0.141501
9.8363e-05
0.0130559
0.151211
6.05379e-05
0.0135098
0.158078
-2.49611e-09
0.013742
0.16163
-6.05432e-05
0.013742
0.16163
-9.83697e-05
0.0135098
0.158078
-0.000100243
0.0130559
0.151211
-6.3118e-05
0.0123956
0.141501
0.0115941
0.129628
-1.09443e-08
0.00012278
0.0130607
0.134319
-2.08202e-10
0.000185272
0.0138373
0.146456
0.000176453
0.0144686
0.156248
0.000106329
0.0148935
0.16311
-3.52502e-09
0.0151085
0.166641
-0.000106336
0.0151085
0.166641
-0.000176461
0.0148935
0.16311
-0.000185281
0.0144686
0.156248
-0.000122791
0.0138373
0.146456
0.0130607
0.134319
-1.27199e-08
0.000185464
0.0132957
0.131023
-5.76182e-10
0.000271556
0.0139628
0.142955
0.000254622
0.0144954
0.152457
0.000151865
0.0148453
0.159059
-4.77423e-09
0.0150202
0.162439
-0.000151875
0.0150202
0.162439
-0.000254632
0.0148453
0.159059
-0.000271567
0.0144954
0.152457
-0.000185476
0.0139629
0.142955
0.0132957
0.131023
-1.38752e-08
0.000246002
0.0124871
0.122285
-1.15297e-09
0.000353635
0.0130025
0.133816
0.000328608
0.0134036
0.142896
0.00019488
0.0136608
0.149155
-6.19834e-09
0.0137877
0.152346
-0.000194893
0.0137877
0.152346
-0.00032862
0.0136608
0.149155
-0.000353647
0.0134036
0.142896
-0.000246015
0.0130025
0.133816
0.0124871
0.122285
-1.42998e-08
0.000301807
0.0109155
0.110025
-1.34107e-09
0.000431018
0.0112676
0.121122
0.000398839
0.0115352
0.129774
0.000235778
0.0117041
0.135699
-7.52049e-09
0.0117869
0.138707
-0.000235793
0.0117869
0.138707
-0.000398853
0.0117041
0.135699
-0.000431032
0.0115352
0.129774
-0.00030182
0.0112676
0.121122
0.0109156
0.110025
-1.43799e-08
0.000359118
0.00887542
0.0956067
-1.69654e-09
0.000512817
0.00907494
0.106311
0.00047238
0.0092312
0.114587
0.000278145
0.00933116
0.12022
-8.4926e-09
0.00938061
0.123071
-0.000278161
0.00938061
0.123071
-0.000472396
0.00933117
0.12022
-0.000512831
0.0092312
0.114587
-0.000359131
0.00907495
0.106311
0.00887542
0.0956066
-1.27399e-08
0.000449175
0.0799452
-3.27602e-09
0.00661502
0.000624712
0.0903259
0.00671473
0.000566174
0.0982898
0.00679666
0.000329916
0.10368
0.00685429
-8.24832e-09
0.106399
0.006883
-0.000329932
0.106399
0.006883
-0.000566188
0.10368
0.00685429
-0.000624724
0.0982898
0.00679666
-0.000449184
0.0903259
0.00671474
0.0799452
-9.30724e-09
0.00661503
6.75679e-06
0.000431653
0.0334354
-9.59189e-11
6.41861e-06
0.000485175
0.0368911
5.11216e-06
0.000532729
0.03982
2.74871e-06
0.000569598
0.0419439
-6.04911e-10
0.000589439
0.0430596
-2.74951e-06
0.00058944
0.0430596
-5.11297e-06
0.000569598
0.0419439
-6.4198e-06
0.000532729
0.03982
-6.75838e-06
0.000485175
0.0368911
0.000431653
0.0334354
-2.23857e-09
2.2518e-05
0.00157195
0.081944
-1.30218e-11
2.79661e-05
0.00173635
0.0899825
2.4034e-05
0.00187909
0.0967244
1.37176e-05
0.00198496
0.101576
-1.07677e-09
0.00204119
0.104113
-1.37193e-05
0.00204119
0.104113
-2.40359e-05
0.00198496
0.101576
-2.79689e-05
0.00187909
0.0967244
-2.25218e-05
0.00173635
0.0899825
0.00157195
0.081944
-4.31099e-09
4.26066e-05
0.00295975
0.11234
-7.21667e-11
5.8018e-05
0.00323075
0.122983
5.17669e-05
0.00346259
0.131804
3.01166e-05
0.00363002
0.1381
-1.53822e-09
0.00371803
0.141376
-3.01195e-05
0.00371803
0.141376
-5.17702e-05
0.00363002
0.1381
-5.80225e-05
0.00346259
0.131804
-4.26123e-05
0.00323075
0.122983
0.00295976
0.11234
-6.6379e-09
6.75408e-05
0.00418634
0.128334
-1.98346e-10
9.56114e-05
0.00452256
0.140181
8.70743e-05
0.0048067
0.149875
5.11022e-05
0.00500762
0.156736
-2.04602e-09
0.00511219
0.160287
-5.11064e-05
0.00511219
0.160287
-8.70789e-05
0.00500762
0.156736
-9.56172e-05
0.0048067
0.149875
-6.75479e-05
0.00452256
0.140181
0.00418635
0.128334
-8.17072e-09
9.63137e-05
0.00501465
0.133394
-4.00572e-10
0.000138072
0.00536437
0.145573
0.000126855
0.00565634
0.15541
7.47113e-05
0.00585878
0.162311
-2.51673e-09
0.00596306
0.165864
-7.47165e-05
0.00596306
0.165864
-0.000126861
0.00585878
0.162311
-0.000138079
0.00565634
0.15541
-9.63219e-05
0.00536438
0.145573
0.00501465
0.133394
-9.49985e-09
0.000127425
0.00535499
0.130556
-5.43576e-10
0.000182762
0.00567411
0.14259
0.000168374
0.00593677
0.152191
9.9265e-05
0.00611537
0.158871
-3.11985e-09
0.00620638
0.162295
-9.92714e-05
0.00620638
0.162295
-0.000168381
0.00611537
0.158871
-0.000182769
0.00593677
0.152191
-0.000127434
0.00567411
0.14259
0.005355
0.130556
-1.03865e-08
0.000158994
0.00522656
0.122254
-6.31279e-10
0.000227336
0.0054861
0.133936
0.000209537
0.0056961
0.143154
0.000123545
0.00583624
0.14952
-3.83806e-09
0.00590693
0.152769
-0.000123553
0.00590693
0.152769
-0.000209545
0.00583624
0.14952
-0.000227345
0.0056961
0.143154
-0.000159004
0.0054861
0.133936
0.00522657
0.122254
-1.0623e-08
0.000189479
0.00471629
0.110345
-1.05355e-09
0.000270575
0.00490276
0.121624
0.000249394
0.00505147
0.13044
0.000146998
0.00514942
0.136488
-4.59698e-09
0.00519847
0.139562
-0.000147007
0.00519847
0.139562
-0.000249403
0.00514942
0.136488
-0.000270584
0.00505148
0.13044
-0.000189488
0.00490277
0.121624
0.0047163
0.110345
-1.03078e-08
0.000219683
0.00394389
0.0961594
-1.93165e-09
0.000313553
0.00405755
0.107062
0.000288392
0.00414928
0.115514
0.00016968
0.00420979
0.121279
-5.33454e-09
0.00424011
0.124199
-0.00016969
0.00424012
0.124199
-0.000288402
0.00420979
0.121279
-0.000313561
0.00414928
0.115514
-0.00021969
0.00405756
0.107062
0.00394389
0.0961594
-8.5543e-09
0.000256608
0.0806016
-2.38817e-09
0.00303091
0.000359582
0.0911891
0.00309141
0.000327739
0.099332
0.00313892
0.00019175
0.104854
0.00317222
-5.7532e-09
0.107642
0.00318899
-0.000191761
0.107642
0.00318899
-0.000327749
0.104854
0.00317222
-0.00035959
0.099332
0.00313892
-0.000256614
0.0911891
0.00309141
0.0806015
-6.28978e-09
0.00303092
-3.35454e-06
0.000250137
0.0331886
-8.30796e-11
-5.05693e-06
0.000273666
0.0366191
-4.36228e-06
0.00029267
0.0395267
-2.47362e-06
0.000306515
0.0416355
-3.27167e-10
0.000313699
0.0427434
2.47285e-06
0.000313699
0.0427434
4.36141e-06
0.000306515
0.0416355
5.05592e-06
0.00029267
0.0395267
3.35336e-06
0.000273666
0.0366191
0.000250137
0.0331886
-1.59331e-09
-3.41218e-06
0.000758131
0.0814395
-9.438e-11
-5.13186e-06
0.000828019
0.0894299
-4.40193e-06
0.000885887
0.0961305
-2.4122e-06
0.00092764
0.100953
-6.2149e-10
0.000949456
0.103475
2.41071e-06
0.000949455
0.103475
4.40009e-06
0.00092764
0.100953
5.12953e-06
0.000885886
0.0961305
3.40951e-06
0.000828018
0.0894299
0.000758132
0.0814395
-2.90742e-09
1.04156e-06
0.00135178
0.111745
-9.918e-11
1.88116e-06
0.00147071
0.122339
2.16912e-06
0.00157
0.131119
1.54432e-06
0.00164073
0.137388
-1.17678e-09
0.00167764
0.14065
-1.54684e-06
0.00167764
0.14065
-2.17208e-06
0.00164073
0.137388
-1.88463e-06
0.00157
0.131119
-1.04574e-06
0.00147071
0.122339
0.00135178
0.111745
-4.59373e-09
9.04521e-06
0.0018954
0.127781
-1.21947e-10
1.4055e-05
0.00205059
0.139596
1.37246e-05
0.00217988
0.149266
8.45057e-06
0.00227083
0.156111
-1.65917e-09
0.00231803
0.159655
-8.454e-06
0.00231803
0.159655
-1.37286e-05
0.00227083
0.156111
-1.40596e-05
0.00217988
0.149266
-9.05027e-06
0.00205059
0.139596
0.0018954
0.127781
-5.6036e-09
1.98689e-05
0.00229098
0.132979
-1.7534e-10
3.0083e-05
0.00246208
0.145151
2.87688e-05
0.00260361
0.154987
1.73962e-05
0.00270179
0.161891
-2.05481e-09
0.00275237
0.165447
-1.74004e-05
0.00275237
0.165447
-2.87735e-05
0.00270179
0.161891
-3.00883e-05
0.00260361
0.154987
-1.98747e-05
0.00246208
0.145151
0.00229098
0.132979
-6.47975e-09
3.27602e-05
0.00248725
0.130327
-3.48527e-10
4.86466e-05
0.0026537
0.142382
4.60419e-05
0.00278983
0.152007
2.76232e-05
0.00288284
0.158709
-2.5529e-09
0.00293038
0.162144
-2.76283e-05
0.00293038
0.162144
-4.60475e-05
0.00288284
0.158709
-4.86526e-05
0.00278983
0.152007
-3.27667e-05
0.00265371
0.142382
0.00248725
0.130327
-7.11517e-09
4.68937e-05
0.00247504
0.122219
-6.37572e-10
6.87058e-05
0.00262045
0.133947
6.46174e-05
0.00273761
0.14321
3.85936e-05
0.00281654
0.149613
-3.08909e-09
0.00285657
0.152881
-3.85998e-05
0.00285657
0.152881
-6.46239e-05
0.00281654
0.149613
-6.87126e-05
0.00273761
0.14321
-4.69006e-05
0.00262046
0.133947
0.00247504
0.122219
-7.44964e-09
6.17448e-05
0.00227698
0.110482
-8.19641e-10
8.99404e-05
0.00239068
0.121826
8.42471e-05
0.00248128
0.130702
5.01512e-05
0.00254179
0.136797
-3.53826e-09
0.00257232
0.139897
-5.01583e-05
0.00257232
0.139897
-8.42543e-05
0.00254179
0.136797
-8.99475e-05
0.00248128
0.130702
-6.17516e-05
0.00239068
0.121826
0.00227698
0.110482
-7.34996e-09
7.84717e-05
0.00193544
0.0964225
-1.00668e-09
0.000113741
0.00201345
0.107404
0.000105818
0.00207639
0.115927
6.26763e-05
0.00211853
0.121745
-3.72521e-09
0.0021398
0.124694
-6.26836e-05
0.0021398
0.124694
-0.000105825
0.00211853
0.121745
-0.000113747
0.00207639
0.115927
-7.84776e-05
0.00201345
0.107404
0.00193544
0.0964224
-6.26034e-09
0.000102281
0.080935
-1.66364e-09
0.00149972
0.000143862
0.0916123
0.00154873
0.000131723
0.0998327
0.0015878
7.72764e-05
0.105412
0.00161499
-3.48524e-09
0.10823
0.00162874
-7.72829e-05
0.10823
0.00162874
-0.000131728
0.105412
0.00161499
-0.000143867
0.0998327
0.0015878
-0.000102285
0.0916122
0.00154873
0.080935
-4.83938e-09
0.00149972
8.46501e-07
6.36425e-05
0.0331242
-1.21545e-10
7.08107e-07
7.13609e-05
0.0365479
5.44003e-07
7.81778e-05
0.0394487
2.82244e-07
8.35138e-05
0.0415522
-3.4441e-10
8.63929e-05
0.0426573
-2.82942e-07
8.63928e-05
0.0426573
-5.44753e-07
8.35136e-05
0.0415522
-7.08878e-07
7.81777e-05
0.0394487
-8.47316e-07
7.13608e-05
0.0365479
6.36428e-05
0.0331242
-1.15448e-09
2.90783e-06
0.000242618
0.0812576
-1.94508e-10
3.45793e-06
0.000268637
0.0892321
2.92442e-06
0.000291249
0.0959179
1.65394e-06
0.000308174
0.10073
-7.22943e-10
0.000317205
0.103246
-1.65541e-06
0.000317205
0.103246
-2.926e-06
0.000308174
0.10073
-3.45958e-06
0.000291248
0.0959179
-2.90954e-06
0.000268637
0.0892321
0.000242619
0.0812576
-1.9475e-09
5.8598e-06
0.00047737
0.111505
-2.25132e-10
7.87548e-06
0.000524064
0.122082
7.00263e-06
0.000564287
0.130847
4.06945e-06
0.000593707
0.137105
-1.11394e-09
0.000609283
0.140362
-4.07171e-06
0.000609283
0.140362
-7.00504e-06
0.000593707
0.137105
-7.87807e-06
0.000564287
0.130847
-5.86254e-06
0.000524064
0.122082
0.00047737
0.111505
-3.17667e-09
9.96608e-06
0.000706237
0.127542
-2.67117e-10
1.41029e-05
0.000769325
0.139347
1.28793e-05
0.000823262
0.149008
7.57685e-06
0.000862067
0.155848
-1.41857e-09
0.000882459
0.159389
-7.57975e-06
0.000882459
0.159389
-1.28824e-05
0.000862067
0.155848
-1.41062e-05
0.000823262
0.149008
-9.96958e-06
0.000769325
0.139347
0.000706238
0.127542
-3.97074e-09
1.52249e-05
0.000884282
0.132785
-3.02731e-10
2.195e-05
0.000955775
0.144958
2.02848e-05
0.00101638
0.154796
1.19962e-05
0.00105935
0.161702
-1.61093e-09
0.00108175
0.16526
-1.19995e-05
0.00108175
0.16526
-2.02883e-05
0.00105935
0.161702
-2.19538e-05
0.00101638
0.154796
-1.52289e-05
0.000955776
0.144958
0.000884283
0.132785
-4.67096e-09
2.14818e-05
0.000985164
0.130204
-3.52606e-10
3.1092e-05
0.00105626
0.142272
2.88601e-05
0.00111589
0.15191
1.70998e-05
0.00115756
0.158622
-1.85752e-09
0.00117912
0.162064
-1.71036e-05
0.00117912
0.162064
-2.88642e-05
0.00115756
0.158622
-3.10963e-05
0.00111589
0.15191
-2.14863e-05
0.00105626
0.142272
0.000985165
0.130204
-5.13428e-09
2.84449e-05
0.00100026
0.122176
-4.13226e-10
4.11303e-05
0.00106344
0.133928
3.82264e-05
0.00111573
0.143213
2.26582e-05
0.00115178
0.149634
-2.10766e-09
0.0011703
0.152913
-2.26625e-05
0.0011703
0.152913
-3.82308e-05
0.00115179
0.149634
-4.11349e-05
0.00111573
0.143213
-2.84496e-05
0.00106344
0.133928
0.00100026
0.122176
-5.23634e-09
3.58232e-05
0.000935626
0.11051
-7.62948e-10
5.17655e-05
0.000985756
0.121888
4.81021e-05
0.00102677
0.130794
2.84942e-05
0.00105476
0.136913
-2.34323e-09
0.00106903
0.140027
-2.84989e-05
0.00106903
0.140027
-4.81069e-05
0.00105476
0.136913
-5.17702e-05
0.00102677
0.130794
-3.58277e-05
0.000985757
0.121888
0.000935627
0.11051
-5.19534e-09
4.37033e-05
0.000807742
0.0965066
-9.84862e-10
6.29898e-05
0.000842738
0.107528
5.83374e-05
0.000871317
0.116087
3.44713e-05
0.000890712
0.121933
-2.58865e-09
0.00090056
0.124897
-3.44764e-05
0.000900561
0.124897
-5.83424e-05
0.000890713
0.121933
-6.29944e-05
0.000871317
0.116087
-4.37077e-05
0.000842738
0.107528
0.000807743
0.0965066
-4.42745e-09
5.27838e-05
0.0810513
-7.19246e-10
0.000638655
7.4729e-05
0.0917726
0.000660429
6.86427e-05
0.100033
0.000677616
4.03612e-05
0.105641
0.000689591
-2.74167e-09
0.108475
0.000695673
-4.03666e-05
0.108475
0.000695673
-6.86477e-05
0.105641
0.000689591
-7.47338e-05
0.100032
0.000677616
-5.27879e-05
0.0917726
0.000660429
0.0810513
-3.41888e-09
0.000638655
-5.41789e-07
4.00756e-05
0.0330846
-6.47591e-11
-8.33542e-07
4.38143e-05
0.0365044
-7.23752e-07
4.67907e-05
0.0394018
-4.12709e-07
4.89631e-05
0.0415029
-2.67345e-10
5.00907e-05
0.0426068
4.12141e-07
5.00907e-05
0.0426068
7.23174e-07
4.89632e-05
0.0415029
8.32944e-07
4.67908e-05
0.0394018
5.41159e-07
4.38143e-05
0.0365044
4.00757e-05
0.0330846
-7.98186e-10
-5.64483e-07
0.000125961
0.0811722
-4.55892e-11
-8.78324e-07
0.000137699
0.0891385
-7.70309e-07
0.000147365
0.0958173
-4.29535e-07
0.000154364
0.100624
-5.47818e-10
0.000158031
0.103137
4.28389e-07
0.000158031
0.103137
7.69116e-07
0.000154364
0.100624
8.77055e-07
0.000147366
0.0958173
5.63156e-07
0.000137699
0.0891385
0.000125961
0.0811722
-1.34122e-09
1.83572e-07
0.000231332
0.111399
-5.60595e-11
2.86018e-07
0.000252378
0.121967
3.20667e-07
0.000269926
0.130725
2.26556e-07
0.000282511
0.136977
-8.20501e-10
0.000289107
0.140231
-2.28241e-07
0.000289107
0.140231
-3.2245e-07
0.000282511
0.136977
-2.87926e-07
0.000269926
0.130725
-1.85639e-07
0.000252378
0.121967
0.000231332
0.111399
-2.19818e-09
1.58479e-06
0.000333883
0.127438
-5.40279e-11
2.43245e-06
0.000362825
0.139235
2.36104e-06
0.000387009
0.148891
1.44902e-06
0.000404187
0.155727
-1.00124e-09
0.000413155
0.159267
-1.45106e-06
0.000413155
0.159267
-2.36321e-06
0.000404187
0.155727
-2.43477e-06
0.000387009
0.148891
-1.58725e-06
0.000362826
0.139235
0.000333883
0.127438
-2.78129e-09
3.58115e-06
0.000415315
0.1327
-7.6206e-11
5.41796e-06
0.000448975
0.14487
5.18239e-06
0.000477003
0.154706
3.1345e-06
0.000496696
0.161612
-1.07215e-09
0.000506921
0.16517
-3.13667e-06
0.000506921
0.16517
-5.18465e-06
0.000496697
0.161612
-5.42037e-06
0.000477004
0.154706
-3.58372e-06
0.000448976
0.14487
0.000415316
0.1327
-3.21741e-09
6.08989e-06
0.00046369
0.13015
-1.72171e-10
9.08497e-06
0.000498231
0.14222
8.62644e-06
0.000526766
0.151861
5.18575e-06
0.000546581
0.158576
-1.18424e-09
0.000556803
0.162019
-5.18812e-06
0.000556803
0.162019
-8.62883e-06
0.000546581
0.158576
-9.08744e-06
0.000526767
0.151861
-6.09248e-06
0.000498232
0.14222
0.000463691
0.13015
-3.46702e-09
8.99893e-06
0.000473865
0.122157
-3.4324e-10
1.32867e-05
0.000505688
0.133916
1.25567e-05
0.000531694
0.143209
7.52078e-06
0.000549552
0.149636
-1.3303e-09
0.000558705
0.152918
-7.52342e-06
0.000558705
0.152918
-1.25593e-05
0.000549552
0.149636
-1.32893e-05
0.000531695
0.143209
-9.00161e-06
0.000505689
0.133916
0.000473866
0.122157
-3.51909e-09
1.22332e-05
0.000446871
0.110525
-5.13276e-10
1.79733e-05
0.000473183
0.121914
1.69219e-05
0.000494519
0.130833
1.01027e-05
0.000509056
0.136961
-1.53185e-09
0.000516468
0.140079
-1.01057e-05
0.000516468
0.140079
-1.69249e-05
0.000509057
0.136961
-1.79763e-05
0.00049452
0.130833
-1.22362e-05
0.000473184
0.121914
0.000446873
0.110525
-3.57573e-09
1.60154e-05
0.000388495
0.096549
-3.66488e-10
2.33651e-05
0.000407805
0.107586
2.18327e-05
0.000423557
0.11616
1.29658e-05
0.000434266
0.122017
-1.82416e-09
0.000439708
0.124987
-1.29694e-05
0.000439709
0.124987
-2.18364e-05
0.000434267
0.122017
-2.33689e-05
0.000423558
0.11616
-1.60191e-05
0.000407806
0.107586
0.000388496
0.096549
-3.2958e-09
2.1161e-05
0.0811113
-3.15955e-10
0.000307356
2.99573e-05
0.0918513
0.000320283
2.75807e-05
0.100128
0.000330583
1.62394e-05
0.105749
0.000337765
-2.19811e-09
0.10859
0.000341417
-1.62438e-05
0.10859
0.000341417
-2.75851e-05
0.105749
0.000337766
-2.99619e-05
0.100128
0.000330585
-2.11649e-05
0.0918513
0.000320285
0.0811113
-2.79236e-09
0.000307355
7.23457e-08
1.17215e-05
0.0330728
-3.45532e-11
2.80362e-08
1.30841e-05
0.0364913
1.14816e-08
1.428e-05
0.0393875
2.30475e-09
1.52082e-05
0.0414877
-2.13439e-10
1.57089e-05
0.0425911
-2.73288e-09
1.57089e-05
0.0425911
-1.19134e-08
1.52082e-05
0.0414877
-2.84319e-08
1.428e-05
0.0393875
-7.2745e-08
1.3084e-05
0.0364913
1.17216e-05
0.0330728
-5.61546e-10
3.48255e-07
4.39691e-05
0.0811397
1.698e-11
3.84463e-07
4.86518e-05
0.0891029
3.16925e-07
5.27062e-05
0.0957789
1.77049e-07
5.57387e-05
0.100584
-4.27554e-10
5.73567e-05
0.103096
-1.77914e-07
5.73567e-05
0.103096
-3.17822e-07
5.57387e-05
0.100584
-3.85362e-07
5.27061e-05
0.0957789
-3.49142e-07
4.86517e-05
0.0891029
4.39694e-05
0.0811397
-9.646e-10
8.26981e-07
8.69125e-05
0.111356
-5.41536e-12
1.09853e-06
9.55393e-05
0.12192
9.74988e-07
0.000102965
0.130674
5.6713e-07
0.000108411
0.136925
-6.3228e-10
0.000111299
0.140178
-5.68411e-07
0.000111299
0.140178
-9.7631e-07
0.000108411
0.136925
-1.09985e-06
0.000102964
0.130674
-8.28303e-07
9.55391e-05
0.12192
8.69129e-05
0.111356
-1.52616e-09
1.5526e-06
0.000130124
0.127393
-1.73399e-11
2.19598e-06
0.000142152
0.139188
2.01015e-06
0.000152453
0.148842
1.18533e-06
0.000159906
0.155677
-7.88836e-10
0.000163835
0.159215
-1.18693e-06
0.000163835
0.159215
-2.01181e-06
0.000159906
0.155677
-2.19766e-06
0.000152453
0.148842
-1.5543e-06
0.000142152
0.139188
0.000130125
0.127393
-1.91367e-09
2.53446e-06
0.00016541
0.132662
-7.51964e-11
3.66108e-06
0.000179526
0.144831
3.39373e-06
0.000191538
0.154667
2.01191e-06
0.000200124
0.161573
-8.89509e-10
0.000204621
0.165131
-2.01373e-06
0.000204621
0.165131
-3.39562e-06
0.000200124
0.161573
-3.66303e-06
0.000191538
0.154667
-2.53647e-06
0.000179526
0.144831
0.00016541
0.132662
-2.14347e-09
3.7555e-06
0.000187344
0.130124
-1.14707e-10
5.45248e-06
0.000201916
0.142196
5.07802e-06
0.000214207
0.151838
3.01607e-06
0.000222886
0.158555
-1.02466e-09
0.000227402
0.162
-3.01818e-06
0.000227402
0.162
-5.08026e-06
0.000222886
0.158555
-5.45484e-06
0.000214206
0.151838
-3.75792e-06
0.000201916
0.142196
0.000187344
0.130124
-2.32929e-09
5.17173e-06
0.000193427
0.122145
-1.44448e-10
7.50958e-06
0.000206899
0.133909
7.00418e-06
0.000218131
0.143206
4.16155e-06
0.00022597
0.149636
-1.1554e-09
0.000230022
0.15292
-4.16394e-06
0.000230022
0.15292
-7.00675e-06
0.00022597
0.149636