/*--------------------------------*- C++ -*----------------------------------*\
| =========                 |                                                 |
| \\      /  F ield         | OpenFOAM: The Open Source CFD Toolbox           |
|  \\    /   O peration     | Version:  2106                                  |
|   \\  /    A nd           | Website:  www.openfoam.com                      |
|    \\/     M anipulation  |                                                 |
\*---------------------------------------------------------------------------*/
FoamFile
{
    version     2.0;
    format      ascii;
    arch        "LSB;label=32;scalar=64";
    class       surfaceScalarField;
    location    "0.53";
    object      phi;
}
// * * * * * * * * * * * * * * * * * * * * * * * * * * * * * * * * * * * * * //

dimensions      [0 3 -1 0 0 0 0];

oriented        oriented;

internalField   nonuniform List<scalar> 
29100
(
0.00118858
0.151322
0.0814849
-3.55814e-10
0.00146266
0.156227
0.0895468
0.00125517
0.159664
0.0962816
0.000714821
0.161954
0.101102
-2.40297e-09
0.163103
0.103612
-0.000714826
0.163103
0.103612
-0.00125517
0.161954
0.101102
-0.00146267
0.159664
0.0962816
-0.00118858
0.156227
0.0895468
0.151322
0.0814849
-5.47955e-09
0.00237897
0.209456
0.156543
-7.34723e-10
0.00330448
0.214057
0.170162
0.00294726
0.217138
0.181297
0.00170493
0.21906
0.189171
-6.76644e-09
0.220002
0.193241
-0.00170495
0.220002
0.193241
-0.00294728
0.21906
0.189171
-0.0033045
0.217138
0.181297
-0.00237899
0.214057
0.170162
0.209456
0.156543
-1.42108e-08
0.00303366
0.220566
0.185971
-1.0743e-09
0.00429077
0.22349
0.201098
0.00385148
0.225391
0.213275
0.00223067
0.226425
0.22181
-1.0836e-08
0.226905
0.226196
-0.00223069
0.226905
0.226196
-0.0038515
0.226425
0.22181
-0.00429079
0.225391
0.213275
-0.00303368
0.22349
0.201098
0.220566
0.185971
-2.18997e-08
0.00346322
0.207166
0.193112
-1.41922e-09
0.00483147
0.208404
0.208376
0.00432763
0.209151
0.220508
0.00250194
0.209375
0.22895
-1.5045e-08
0.209438
0.233271
-0.00250197
0.209438
0.233271
-0.00432766
0.209375
0.22895
-0.0048315
0.209151
0.220508
-0.00346325
0.208404
0.208376
0.207166
0.193112
-2.86823e-08
0.00369154
0.182017
0.187692
-1.78492e-09
0.00508013
0.181958
0.202585
0.00453788
0.181831
0.214302
0.00262
0.181479
0.222408
-1.96262e-08
0.181252
0.226543
-0.00262004
0.181252
0.226543
-0.00453792
0.181479
0.222408
-0.00508017
0.181831
0.214302
-0.00369157
0.181958
0.202585
0.182017
0.187692
-3.48528e-08
0.00377415
0.152455
0.175083
-2.19569e-09
0.0051423
0.151538
0.18945
0.0045837
0.150841
0.200663
0.00264489
0.150153
0.208379
-2.4808e-08
0.149763
0.212305
-0.00264494
0.149763
0.212305
-0.00458375
0.150153
0.208379
-0.00514234
0.150841
0.200663
-0.00377419
0.151538
0.18945
0.152455
0.175083
-4.06226e-08
0.00377908
0.122589
0.158441
-2.68529e-09
0.00511255
0.12119
0.172283
0.00455009
0.120179
0.183014
0.00262527
0.119349
0.190363
-3.07936e-08
0.1189
0.194094
-0.00262533
0.1189
0.194094
-0.00455015
0.119349
0.190363
-0.00511261
0.120179
0.183014
-0.00377913
0.12119
0.172283
0.122589
0.158441
-4.61858e-08
0.00374121
0.0946487
0.139613
-3.24365e-09
0.00505363
0.093031
0.152985
0.00449736
0.0919065
0.163294
0.00259599
0.0910805
0.170323
-3.77207e-08
0.0906533
0.173883
-0.00259606
0.0906533
0.173883
-0.00449743
0.0910805
0.170323
-0.0050537
0.0919065
0.163294
-0.00374126
0.093031
0.152985
0.0946487
0.139613
-5.14817e-08
0.00370578
0.0697519
0.119664
-4.1429e-09
0.00503051
0.0680825
0.132632
0.0044782
0.0670185
0.142581
0.00258412
0.0663141
0.149334
-4.53756e-08
0.0659654
0.152746
-0.00258421
0.0659654
0.152746
-0.00447829
0.0663141
0.149334
-0.00503058
0.0670185
0.142581
-0.00370584
0.0680825
0.132632
0.0697518
0.119664
-5.64968e-08
0.00392388
0.0992046
-5.18612e-09
0.0481564
0.00521684
0.111829
0.0468386
0.00458735
0.121464
0.0459996
0.00262706
0.127976
0.0454912
-5.3064e-08
0.131259
0.0452418
-0.00262716
0.131259
0.0452418
-0.00458745
0.127976
0.0454912
-0.00521692
0.121464
0.0459996
-0.00392395
0.111829
0.0468386
0.0992046
-6.12511e-08
0.0481564
-0.000242019
0.0367086
0.0450182
-4.72985e-10
-0.000244078
0.0398975
0.0496514
-0.000171614
0.0425924
0.0536167
-8.54797e-05
0.0445194
0.0564965
-3.97075e-09
0.0455162
0.0580108
8.54717e-05
0.0455162
0.0580108
0.000171606
0.0445194
0.0564965
0.00024407
0.0425924
0.0536167
0.00024201
0.0398975
0.0496514
0.0367086
0.0450183
-8.61461e-09
6.38357e-05
0.0810225
0.112166
-1.10488e-09
0.000252717
0.08683
0.12304
0.000302447
0.0916596
0.13218
0.000202711
0.0950431
0.138747
-1.20344e-08
0.0967809
0.142178
-0.000202736
0.0967809
0.142178
-0.000302472
0.0950431
0.138747
-0.000252741
0.0916596
0.13218
-6.38598e-05
0.08683
0.12304
0.0810225
0.112166
-2.40669e-08
0.000614737
0.112552
0.153826
-1.78636e-09
0.00103379
0.119268
0.168241
0.00101169
0.12478
0.180177
0.00061835
0.128566
0.18868
-2.027e-08
0.130496
0.1931
-0.00061839
0.130496
0.1931
-0.00101173
0.128566
0.18868
-0.00103383
0.12478
0.180177
-0.000614776
0.119268
0.168241
0.112552
0.153826
-3.78749e-08
0.00123441
0.128984
0.175446
-2.41352e-09
0.00187805
0.135366
0.191634
0.00176713
0.140536
0.204862
0.00105539
0.144013
0.214215
-2.88181e-08
0.145768
0.219055
-0.00105545
0.145768
0.219055
-0.00176719
0.144013
0.214215
-0.0018781
0.140536
0.204862
-0.00123446
0.135366
0.191634
0.128984
0.175446
-5.0173e-08
0.00183929
0.132094
0.182743
-3.09718e-09
0.00267867
0.137453
0.199658
0.00247531
0.141726
0.213316
0.00146211
0.14453
0.222905
-3.79031e-08
0.145928
0.227846
-0.00146218
0.145928
0.227846
-0.00247539
0.14453
0.222905
-0.00267874
0.141726
0.213316
-0.00183936
0.137453
0.199658
0.132094
0.182743
-6.1136e-08
0.00238529
0.124952
0.179839
-3.88599e-09
0.00338906
0.129022
0.196878
0.00309913
0.132189
0.210489
0.00181914
0.134207
0.219982
-4.76736e-08
0.135197
0.224855
-0.00181924
0.135197
0.224855
-0.00309922
0.134207
0.219982
-0.00338915
0.132189
0.210489
-0.00238537
0.129022
0.196878
0.124952
0.179839
-7.08366e-08
0.00284939
0.110813
0.16973
-4.82455e-09
0.00399309
0.113594
0.186566
0.00363037
0.115678
0.199887
0.00212371
0.116956
0.20912
-5.81404e-08
0.117571
0.213843
-0.00212383
0.117571
0.213843
-0.00363048
0.116956
0.20912
-0.00399319
0.115678
0.199887
-0.00284947
0.113594
0.186566
0.110813
0.16973
-7.93539e-08
0.00322599
0.0926116
0.154588
-5.7651e-09
0.00450086
0.0942397
0.171065
0.00408324
0.0953981
0.183992
0.00238492
0.0960789
0.192899
-6.9056e-08
0.0964
0.197439
-0.00238506
0.0964
0.197439
-0.00408337
0.0960789
0.192899
-0.00450097
0.0953981
0.183992
-0.00322608
0.0942397
0.171065
0.0926116
0.154588
-8.6377e-08
0.00355122
0.0727511
0.135974
-7.19201e-09
0.00496226
0.073424
0.152037
0.00449622
0.0739037
0.164541
0.002622
0.0741808
0.173106
-7.94215e-08
0.0743112
0.177457
-0.00262216
0.0743112
0.177457
-0.00449636
0.0741808
0.173106
-0.00496238
0.0739037
0.164541
-0.00355132
0.073424
0.152037
0.0727511
0.135974
-9.14295e-08
0.00397441
0.114995
-9.29564e-09
0.0529866
0.00550362
0.130657
0.0530668
0.00494738
0.142743
0.0531812
0.00286893
0.150972
0.0532638
-8.80227e-08
0.155137
0.0533017
-0.0028691
0.155137
0.0533017
-0.00494754
0.150972
0.0532638
-0.00550376
0.142743
0.0531812
-0.00397452
0.130657
0.0530668
0.114995
-9.45115e-08
0.0529866
3.96516e-05
0.0100012
0.0349774
-4.62799e-10
3.56049e-05
0.0110356
0.0386198
2.99303e-05
0.0119137
0.0417087
1.65665e-05
0.0125656
0.0439443
-4.12638e-09
0.012909
0.0451183
-1.65748e-05
0.012909
0.0451183
-2.99388e-05
0.0125656
0.0439443
-3.56136e-05
0.0119137
0.0417087
-3.96604e-05
0.0110356
0.0386198
0.0100012
0.0349774
-8.90476e-09
0.000282154
0.0303041
0.0915805
-1.1084e-09
0.000382948
0.0330112
0.100964
0.000342076
0.0352767
0.108858
0.000199479
0.0369105
0.114545
-1.30763e-08
0.037764
0.117523
-0.000199505
0.037764
0.117523
-0.000342102
0.0369105
0.114545
-0.000382974
0.0352767
0.108858
-0.00028218
0.0330112
0.100964
0.0303041
0.0915805
-2.53523e-08
0.000601391
0.0511685
0.132361
-1.85902e-09
0.000852934
0.0551591
0.145842
0.000772448
0.0584542
0.15708
0.000452657
0.0607773
0.165133
-2.24135e-08
0.0619806
0.169336
-0.000452701
0.0619806
0.169336
-0.000772493
0.0607773
0.165133
-0.000852978
0.0584542
0.15708
-0.000601433
0.0551591
0.145842
0.0511685
0.132361
-4.0421e-08
0.000967485
0.066898
0.158749
-2.66166e-09
0.00138788
0.071452
0.174921
0.00126723
0.0751662
0.188271
0.000744072
0.0777334
0.197782
-3.21456e-08
0.0790509
0.202728
-0.000744136
0.0790509
0.202728
-0.00126729
0.0777334
0.197782
-0.00138794
0.0751662
0.188271
-0.000967541
0.071452
0.174921
0.066898
0.158749
-5.3799e-08
0.00135525
0.0755158
0.17277
-3.6065e-09
0.0019404
0.0799743
0.190551
0.00177617
0.0835619
0.205085
0.00104317
0.0859936
0.215378
-4.23355e-08
0.0872288
0.220711
-0.00104326
0.0872288
0.220711
-0.00177625
0.0859936
0.215378
-0.00194048
0.083562
0.205085
-0.00135532
0.0799743
0.190551
0.0755158
0.17277
-6.54738e-08
0.00174432
0.0770621
0.176549
-4.73889e-09
0.00248052
0.0809615
0.195155
0.00226955
0.0840449
0.210217
0.0013322
0.086092
0.220821
-5.29452e-08
0.0871203
0.226296
-0.00133231
0.0871203
0.226296
-0.00226965
0.086092
0.220821
-0.00248061
0.0840449
0.210217
-0.0017444
0.0809616
0.195155
0.0770621
0.176548
-7.53973e-08
0.00211153
0.0726295
0.172051
-6.11445e-09
0.00298425
0.075713
0.190942
0.0027277
0.078094
0.206095
0.00160021
0.079641
0.216699
-6.37907e-08
0.0804092
0.222154
-0.00160033
0.0804092
0.222154
-0.00272782
0.079641
0.216699
-0.00298435
0.078094
0.206095
-0.00211162
0.075713
0.190942
0.0726295
0.172051
-8.35262e-08
0.00244094
0.0637829
0.160994
-7.5741e-09
0.00344187
0.0659593
0.179818
0.00314441
0.0675968
0.194787
0.00184382
0.0686411
0.205199
-7.44114e-08
0.0691548
0.210537
-0.00184397
0.0691548
0.210537
-0.00314454
0.0686411
0.205199
-0.00344199
0.0675968
0.194787
-0.00244104
0.0659593
0.179818
0.0637829
0.160994
-8.94653e-08
0.00274523
0.0521881
0.144823
-9.67103e-09
0.00386975
0.0534966
0.163375
0.00352989
0.0544753
0.178003
0.002067
0.0550971
0.188113
-8.3577e-08
0.0554026
0.193276
-0.00206717
0.0554026
0.193276
-0.00353004
0.0550971
0.188113
-0.00386988
0.0544753
0.178003
-0.00274534
0.0534966
0.163375
0.0521881
0.144823
-9.26052e-08
0.00308431
0.124733
-1.22837e-08
0.0393656
0.00431317
0.142935
0.0399902
0.00391174
0.157129
0.040491
0.00228122
0.166872
0.0408271
-8.98899e-08
0.171828
0.040993
-0.00228139
0.171828
0.040993
-0.0039119
0.166872
0.0408271
-0.0043133
0.157129
0.040491
-0.00308442
0.142935
0.0399902
0.124733
-9.31315e-08
0.0393656
-3.1818e-05
0.00406342
0.0309458
-4.28445e-10
-4.54404e-05
0.00447442
0.034159
-3.66964e-05
0.0048233
0.0368766
-2.0249e-05
0.00508267
0.0388452
-3.67558e-09
0.00521854
0.0398795
2.02416e-05
0.00521854
0.0398795
3.66889e-05
0.00508267
0.0388452
4.54326e-05
0.0048233
0.0368766
3.18099e-05
0.00447442
0.034159
0.00406342
0.0309458
-7.90659e-09
9.26267e-06
0.0125996
0.083035
-1.09207e-09
1.61228e-05
0.013805
0.0916265
2.05174e-05
0.0148266
0.0988498
1.47685e-05
0.0155711
0.104062
-1.18395e-08
0.0159615
0.106795
-1.47922e-05
0.0159615
0.106795
-2.0541e-05
0.0155711
0.104062
-1.61455e-05
0.0148266
0.0988498
-9.28435e-06
0.013805
0.0916265
0.0125996
0.083035
-2.26571e-08
0.000121578
0.022402
0.122437
-1.86638e-09
0.000184312
0.0243996
0.135184
0.00017699
0.0260813
0.145832
0.000107836
0.0272882
0.153485
-2.04521e-08
0.0279183
0.157487
-0.000107877
0.0279183
0.157487
-0.00017703
0.0272882
0.153485
-0.000184352
0.0260813
0.145832
-0.000121616
0.0243996
0.135184
0.0224021
0.122437
-3.6588e-08
0.000290526
0.031024
0.149836
-2.70692e-09
0.000433025
0.0335624
0.165616
0.000408124
0.0356784
0.178699
0.000244672
0.0371744
0.18806
-2.94758e-08
0.0379505
0.192941
-0.000244731
0.0379505
0.192941
-0.000408181
0.0371744
0.18806
-0.00043308
0.0356784
0.178699
-0.000290578
0.0335624
0.165616
0.031024
0.149836
-4.88174e-08
0.000500339
0.036959
0.166334
-3.6901e-09
0.000735108
0.039698
0.18418
0.000687422
0.0419517
0.198859
0.000409424
0.0435206
0.20931
-3.88198e-08
0.0443282
0.214743
-0.000409501
0.0443282
0.214743
-0.000687496
0.0435206
0.20931
-0.000735178
0.0419517
0.198859
-0.000500402
0.039698
0.18418
0.036959
0.166334
-5.93025e-08
0.000734976
0.0395706
0.173202
-4.87274e-09
0.00106654
0.0421921
0.192329
0.000991948
0.0443121
0.207931
0.000588509
0.0457637
0.218981
-4.83433e-08
0.0465044
0.224708
-0.000588605
0.0465044
0.224708
-0.000992039
0.0457637
0.218981
-0.00106662
0.0443121
0.207931
-0.00073505
0.0421921
0.192329
0.0395706
0.173202
-6.79574e-08
0.000977241
0.0388896
0.171755
-6.30506e-09
0.00140577
0.041153
0.191552
0.00130259
0.0429431
0.207567
0.000770874
0.0441478
0.218846
-5.77657e-08
0.044757
0.224673
-0.000770987
0.044757
0.224673
-0.0013027
0.0441478
0.218846
-0.00140586
0.0429431
0.207567
-0.000977323
0.041153
0.191552
0.0388896
0.171755
-7.46851e-08
0.00121428
0.0354012
0.163268
-7.79534e-09
0.00173968
0.0371597
0.183286
0.00160791
0.0385176
0.199344
0.000949699
0.0394171
0.210588
-6.65576e-08
0.0398682
0.216376
-0.000949829
0.0398682
0.216376
-0.00160803
0.0394172
0.210588
-0.00173978
0.0385176
0.199344
-0.00121437
0.0371597
0.183286
0.0354012
0.163268
-7.91265e-08
0.00145039
0.029849
0.148925
-9.74804e-09
0.00207105
0.0310544
0.16886
0.00190687
0.0319707
0.184714
0.00112311
0.0325722
0.195742
-7.35417e-08
0.0328724
0.201395
-0.00112326
0.0328724
0.201395
-0.001907
0.0325723
0.195742
-0.00207116
0.0319707
0.184714
-0.00145048
0.0310544
0.16886
0.029849
0.148925
-8.06879e-08
0.00170159
0.129799
-1.2219e-08
0.0230813
0.00241159
0.149505
0.0237741
0.00220748
0.164984
0.0243193
0.00129455
0.175671
0.0246862
-7.75778e-08
0.181126
0.0248694
-0.0012947
0.181126
0.0248694
-0.00220761
0.175671
0.0246862
-0.00241171
0.164984
0.0243193
-0.00170168
0.149505
0.0237741
0.129799
-7.95946e-08
0.0230813
2.18177e-06
0.00131128
0.0296323
-3.78388e-10
-2.02174e-07
0.00145625
0.0327051
1.3462e-07
0.0015825
0.0352938
1.29819e-07
0.00167889
0.0371663
-3.01597e-09
0.00173031
0.0381494
-1.35887e-07
0.00173031
0.0381494
-1.4081e-07
0.00167889
0.0371663
1.95837e-07
0.0015825
0.0352938
-2.18807e-06
0.00145625
0.0327051
0.00131128
0.0296323
-6.51161e-09
3.04871e-05
0.0047071
0.0796087
-1.0188e-09
3.92292e-05
0.00519533
0.0878787
3.60152e-05
0.00561511
0.0948204
2.13247e-05
0.00592697
0.099829
-9.77178e-09
0.00609223
0.102454
-2.13442e-05
0.00609223
0.102454
-3.60348e-05
0.00592698
0.099829
-3.92487e-05
0.00561511
0.0948204
-3.05061e-05
0.00519534
0.0878787
0.00470711
0.0796087
-1.88757e-08
8.4671e-05
0.00907832
0.117981
-1.73475e-09
0.000119744
0.00996336
0.130381
0.000110368
0.0107174
0.14074
6.5455e-05
0.0112674
0.14819
-1.69309e-08
0.0115573
0.152088
-6.54887e-05
0.0115573
0.152088
-0.000110401
0.0112674
0.14819
-0.000119776
0.0107174
0.14074
-8.4702e-05
0.00996337
0.130381
0.00907833
0.117981
-3.02875e-08
0.000164481
0.0133303
0.14542
-2.52853e-09
0.00023851
0.0145417
0.160963
0.000221324
0.0155637
0.17387
0.00013137
0.016298
0.183119
-2.4414e-08
0.0166825
0.187947
-0.000131419
0.0166825
0.187947
-0.000221371
0.016298
0.183119
-0.000238555
0.0155637
0.17387
-0.000164523
0.0145417
0.160963
0.0133304
0.14542
-4.0385e-08
0.000266952
0.016644
0.162754
-3.44809e-09
0.000388719
0.0180386
0.180562
0.000361536
0.0192012
0.195249
0.000214572
0.0200245
0.20573
-3.20912e-08
0.0204524
0.211188
-0.000214635
0.0204524
0.211188
-0.000361597
0.0200245
0.20573
-0.000388776
0.0192012
0.195249
-0.000267004
0.0180386
0.180561
0.016644
0.162754
-4.90467e-08
0.000386749
0.0185333
0.170926
-4.53248e-09
0.000561456
0.0199472
0.190246
0.000522071
0.0211083
0.206064
0.000309629
0.021918
0.2173
-3.97947e-08
0.0223356
0.223134
-0.000309707
0.0223356
0.223134
-0.000522146
0.0219181
0.2173
-0.000561524
0.0211083
0.206064
-0.00038681
0.0199473
0.190246
0.0185333
0.170926
-5.61257e-08
0.000516498
0.018832
0.17094
-5.81766e-09
0.000746644
0.0201189
0.191151
0.000693513
0.0211558
0.207573
0.00041092
0.0218678
0.219179
-4.72487e-08
0.0222317
0.225188
-0.000411012
0.0222318
0.225187
-0.0006936
0.0218678
0.219179
-0.000746722
0.0211558
0.207573
-0.000516565
0.0201189
0.19115
0.018832
0.17094
-6.15149e-08
0.000649583
0.0176391
0.163811
-7.16819e-09
0.00093638
0.0186923
0.184425
0.000868325
0.0195235
0.201044
0.000513801
0.0200856
0.212725
-5.39971e-08
0.0203706
0.218751
-0.000513906
0.0203706
0.218751
-0.000868423
0.0200856
0.212725
-0.000936466
0.0195235
0.201044
-0.000649655
0.0186923
0.184425
0.0176391
0.163811
-6.49423e-08
0.000786045
0.0152437
0.150535
-8.87232e-09
0.00112799
0.0160099
0.1712
0.00104196
0.0166031
0.18772
0.000614941
0.0169992
0.199255
-5.9121e-08
0.0171986
0.205182
-0.000615056
0.0171986
0.205182
-0.00104207
0.0169992
0.199255
-0.00112808
0.0166031
0.18772
-0.000786119
0.0160099
0.1712
0.0152437
0.150535
-6.5927e-08
0.000921599
0.132065
-1.086e-08
0.0120565
0.00131461
0.152595
0.0125272
0.00120963
0.168795
0.0128968
0.000711731
0.180021
0.0131475
-6.17861e-08
0.185762
0.0132736
-0.000711851
0.185762
0.0132736
-0.00120974
0.180021
0.0131475
-0.0013147
0.168795
0.0128968
-0.000921673
0.152595
0.0125272
0.132065
-6.46693e-08
0.0120565
-5.55511e-06
0.000565702
0.0290722
-3.06274e-10
-8.28882e-06
0.000622259
0.0320856
-6.6103e-06
0.000670172
0.0346219
-3.65157e-06
0.00070656
0.0364568
-2.38728e-09
0.000725699
0.03742
3.64691e-06
0.000725699
0.03742
6.60543e-06
0.00070656
0.0364568
8.28394e-06
0.000670173
0.0346219
5.55003e-06
0.00062226
0.0320856
0.000565703
0.0290722
-5.11084e-09
-1.24511e-06
0.00196865
0.078207
-8.5175e-10
-2.53375e-06
0.00216853
0.0863337
-1.2426e-06
0.00233891
0.0931504
-2.28086e-07
0.00246562
0.0980689
-7.74438e-09
0.00253274
0.100647
2.11991e-07
0.00253274
0.100647
1.22722e-06
0.00246562
0.0980689
2.51795e-06
0.00233891
0.0931504
1.23015e-06
0.00216853
0.0863337
0.00196866
0.078207
-1.47935e-08
1.6536e-05
0.00382606
0.116107
-1.46408e-09
2.43819e-05
0.00420699
0.128335
2.39095e-05
0.00453178
0.138547
1.47875e-05
0.00477009
0.145895
-1.32634e-08
0.00489602
0.149739
-1.48137e-05
0.00489602
0.149739
-2.39355e-05
0.00477009
0.145895
-2.44071e-05
0.00453178
0.138547
-1.65601e-05
0.00420699
0.128335
0.00382606
0.116107
-2.35803e-08
4.83777e-05
0.00572939
0.143468
-2.13972e-09
7.19162e-05
0.00627689
0.15887
6.84194e-05
0.00674117
0.171664
4.1297e-05
0.00707763
0.180839
-1.90531e-08
0.0072546
0.18563
-4.13347e-05
0.0072546
0.18563
-6.84563e-05
0.00707763
0.180839
-7.19514e-05
0.00674117
0.171664
-4.84104e-05
0.0062769
0.15887
0.00572939
0.143468
-3.14821e-08
9.30642e-05
0.00731833
0.161072
-2.90854e-09
0.000137722
0.00797839
0.178815
0.000129985
0.00853278
0.193465
7.79022e-05
0.00892946
0.20393
-2.49619e-08
0.00913684
0.209383
-7.79515e-05
0.00913684
0.209383
-0.000130033
0.00892946
0.20393
-0.000137767
0.00853279
0.193465
-9.31046e-05
0.0079784
0.178815
0.00731834
0.161072
-3.83227e-08
0.000148491
0.00833705
0.169759
-3.79609e-09
0.000218254
0.00903587
0.189118
0.000205094
0.0096149
0.204995
0.000122477
0.0100236
0.216288
-3.08279e-08
0.0102357
0.222158
-0.000122538
0.0102357
0.222158
-0.000205151
0.0100236
0.216288
-0.000218307
0.00961491
0.204995
-0.000148538
0.00903588
0.189118
0.00833707
0.169759
-4.39328e-08
0.000211509
0.00865572
0.170409
-4.82426e-09
0.000309045
0.00931844
0.19077
0.000289507
0.00985807
0.207349
0.000172468
0.0102335
0.219086
-3.64283e-08
0.0104268
0.225169
-0.00017254
0.0104268
0.225169
-0.000289574
0.0102335
0.219086
-0.000309106
0.00985808
0.207349
-0.000211562
0.00931845
0.19077
0.00865574
0.170409
-4.82183e-08
0.000279186
0.00826737
0.163921
-5.88602e-09
0.000406305
0.00883231
0.184784
0.000379447
0.0092835
0.201646
0.000225505
0.00959272
0.21352
-4.14209e-08
0.00975058
0.219652
-0.000225585
0.00975058
0.219652
-0.000379522
0.00959273
0.21352
-0.000406371
0.00928351
0.201646
-0.000279242
0.00883232
0.184784
0.00826738
0.163921
-5.09966e-08
0.000351732
0.00726717
0.151183
-7.14094e-09
0.000508503
0.00769708
0.172179
0.000472304
0.00803344
0.189006
0.000279692
0.00826066
0.20078
-4.51641e-08
0.00837573
0.206837
-0.00027978
0.00837573
0.206836
-0.000472385
0.00826067
0.20078
-0.000508573
0.00803345
0.189006
-0.00035179
0.00769709
0.172179
0.00726718
0.151183
-5.19301e-08
0.000425035
0.133077
-8.55365e-09
0.00582982
0.000610705
0.153999
0.00610759
0.000564962
0.170548
0.00632684
0.000333502
0.182037
0.00647641
-4.71144e-08
0.18792
0.00655204
-0.000333593
0.18792
0.00655204
-0.000565045
0.182037
0.00647641
-0.000610776
0.170548
0.00632685
-0.000425092
0.153999
0.0061076
0.133077
-5.11708e-08
0.00582982
-7.93464e-07
0.000178841
0.0288941
-2.304e-10
-1.57516e-06
0.000198155
0.0318882
-1.1625e-06
0.000215009
0.0344065
-6.27134e-07
0.000228258
0.036228
-1.78939e-09
0.000235331
0.0371841
6.23546e-07
0.000235331
0.0371841
1.15888e-06
0.000228258
0.036228
1.57144e-06
0.000215009
0.0344065
7.89681e-07
0.000198155
0.0318882
0.000178841
0.0288941
-3.6696e-09
1.7026e-06
0.000701382
0.0776828
-6.51195e-10
1.7254e-06
0.000776775
0.085755
1.85576e-06
0.000842185
0.0925231
1.21426e-06
0.000891714
0.0974061
-5.76386e-09
0.000918162
0.0999653
-1.22572e-06
0.000918163
0.0999653
-1.8672e-06
0.000891715
0.0974061
-1.7365e-06
0.000842186
0.0925231
-1.71325e-06
0.000776777
0.085755
0.000701384
0.0776828
-1.07002e-08
9.33579e-06
0.00144452
0.115354
-1.13163e-09
1.3003e-05
0.00159653
0.127512
1.23034e-05
0.00172772
0.137662
7.44044e-06
0.00182528
0.144966
-9.9597e-09
0.00187719
0.148788
-7.46023e-06
0.00187719
0.148788
-1.23229e-05
0.00182528
0.144966
-1.30219e-05
0.00172772
0.137662
-9.35366e-06
0.00159654
0.127512
0.00144452
0.115354
-1.73818e-08
2.27394e-05
0.00224767
0.142642
-1.65941e-09
3.30168e-05
0.0024758
0.15798
3.10454e-05
0.00267131
0.170722
1.8607e-05
0.00281473
0.179862
-1.42953e-08
0.00289067
0.184635
-1.86354e-05
0.00289067
0.184635
-3.1073e-05
0.00281473
0.179861
-3.30431e-05
0.00267132
0.170722
-2.27638e-05
0.00247581
0.15798
0.00224768
0.142642
-2.3415e-08
4.19817e-05
0.00295753
0.16032
-2.2503e-09
6.15355e-05
0.0032429
0.178029
5.78097e-05
0.00348513
0.192655
3.45522e-05
0.00366053
0.203108
-1.86745e-08
0.00375284
0.208556
-3.45891e-05
0.00375284
0.208556
-5.78452e-05
0.00366054
0.203108
-6.15688e-05
0.00348514
0.192655
-4.2012e-05
0.00324291
0.178029
0.00295753
0.16032
-2.86657e-08
6.65241e-05
0.00345327
0.169196
-2.91578e-09
9.75297e-05
0.00376547
0.188565
9.15361e-05
0.00402706
0.204459
5.46231e-05
0.00421395
0.215772
-2.29855e-08
0.00431161
0.221654
-5.46684e-05
0.00431161
0.221654
-9.15792e-05
0.00421396
0.215772
-9.75695e-05
0.00402707
0.204459
-6.65594e-05
0.00376547
0.188565
0.00345328
0.169196
-3.30379e-08
9.52311e-05
0.00366168
0.170106
-3.66472e-09
0.000139295
0.0039667
0.190525
0.000130558
0.00421813
0.207167
7.77983e-05
0.0043952
0.218958
-2.70709e-08
0.00448699
0.225071
-7.78514e-05
0.004487
0.225071
-0.000130608
0.00439521
0.218958
-0.000139341
0.00421814
0.207167
-9.52705e-05
0.00396671
0.190525
0.00366169
0.170106
-3.64674e-08
0.000126877
0.00356201
0.163893
-4.43124e-09
0.000185093
0.00382958
0.184863
0.000173075
0.004046
0.20183
0.000102931
0.00419606
0.213789
-3.07e-08
0.00427314
0.219969
-0.000102991
0.00427314
0.219969
-0.000173131
0.00419607
0.213789
-0.000185143
0.00404601
0.20183
-0.000126919
0.00382959
0.184863
0.00356202
0.163893
-3.88336e-08
0.000161229
0.00318206
0.151402
-5.30516e-09
0.000233614
0.00339191
0.172544
0.000217321
0.00355764
0.189511
0.000128826
0.00367062
0.201394
-3.34706e-08
0.00372812
0.20751
-0.000128891
0.00372812
0.20751
-0.000217381
0.00367063
0.201394
-0.000233667
0.00355765
0.189511
-0.000161273
0.00339192
0.172544
0.00318206
0.151402
-3.99191e-08
0.000194226
0.133472
-6.24299e-09
0.00259236
0.000280418
0.154573
0.00273166
0.000260322
0.171284
0.00284187
0.000154007
0.182896
0.00291742
-3.50606e-08
0.188846
0.00295578
-0.000154075
0.188846
0.00295578
-0.000260384
0.182896
0.00291742
-0.000280472
0.171284
0.00284187
-0.00019427
0.154573
0.00273166
0.133472
-3.98378e-08
0.00259237
-1.34632e-06
7.16704e-05
0.0288238
-1.635e-10
-1.94205e-06
7.86579e-05
0.0318102
-1.57066e-06
8.46498e-05
0.0343215
-8.70272e-07
8.93181e-05
0.036138
-1.31529e-09
9.17842e-05
0.0370914
8.67643e-07
9.17843e-05
0.0370914
1.56804e-06
8.93183e-05
0.036138
1.93942e-06
8.46502e-05
0.0343215
1.34367e-06
7.86584e-05
0.0318101
7.16707e-05
0.0288238
-2.52627e-09
-1.68131e-06
0.000270113
0.077486
-4.75942e-10
-2.53415e-06
0.000298324
0.0855362
-2.06779e-06
0.000322751
0.0922845
-1.11524e-06
0.000341286
0.0971532
-4.22181e-09
0.000351171
0.0997048
1.10684e-06
0.000351171
0.0997048
2.05951e-06
0.000341287
0.0971532
2.52599e-06
0.000322752
0.0922845
1.67329e-06
0.000298326
0.0855362
0.000270114
0.077486
-7.48341e-09
5.53983e-07
0.000556908
0.115067
-8.12809e-10
6.35621e-07
0.000616088
0.127194
8.36682e-07
0.000667158
0.137318
6.2501e-07
0.000705333
0.144602
-7.27932e-09
0.000725696
0.148414
-6.39452e-07
0.000725696
0.148414
-8.508e-07
0.000705334
0.144602
-6.48791e-07
0.00066716
0.137318
-5.65394e-07
0.00061609
0.127194
0.000556911
0.115067
-1.20492e-08
5.23661e-06
0.00087777
0.142316
-1.20677e-09
7.71099e-06
0.000969612
0.157624
7.47736e-06
0.00104855
0.170341
4.58302e-06
0.00110684
0.179463
-1.04264e-08
0.0011378
0.184227
-4.60367e-06
0.0011378
0.184227
-7.49739e-06
0.00110684
0.179463
-7.73005e-06
0.00104856
0.170341
-5.25425e-06
0.000969616
0.157624
0.000877774
0.142316
-1.66613e-08
1.26789e-05
0.00117345
0.160011
-1.62911e-09
1.87644e-05
0.00129195
0.1777
1.78554e-05
0.00139297
0.192311
1.07694e-05
0.00146665
0.202755
-1.35869e-08
0.00150557
0.208199
-1.07963e-05
0.00150558
0.208199
-1.78812e-05
0.00146665
0.202755
-1.87886e-05
0.00139298
0.192311
-1.27009e-05
0.00129196
0.1777
0.00117346
0.160011
-2.06515e-08
2.26328e-05
0.00139245
0.168955
-2.08934e-09
3.34393e-05
0.00152584
0.18832
3.16354e-05
0.0016382
0.204215
1.89802e-05
0.00171909
0.215532
-1.66827e-08
0.00176153
0.221417
-1.90131e-05
0.00176154
0.221417
-3.16667e-05
0.00171909
0.215532
-3.34682e-05
0.00163821
0.204215
-2.26585e-05
0.00152585
0.18832
0.00139245
0.168955
-2.40043e-08
3.46885e-05
0.00149932
0.169964
-2.59411e-09
5.1102e-05
0.00163319
0.190401
4.81916e-05
0.00174419
0.207064
2.88296e-05
0.00182298
0.218873
-1.96103e-08
0.001864
0.224998
-2.88681e-05
0.001864
0.224998
-4.8228e-05
0.00182298
0.218873
-5.11351e-05
0.0017442
0.207064
-3.47174e-05
0.00163319
0.190401
0.00149933
0.169964
-2.67192e-08
4.83998e-05
0.00147909
0.163865
-3.105e-09
7.1076e-05
0.00159958
0.184874
6.6796e-05
0.00169769
0.201881
3.98464e-05
0.00176623
0.213873
-2.22255e-08
0.00180158
0.220071
-3.98899e-05
0.00180158
0.220071
-6.68368e-05
0.00176623
0.213873
-7.11125e-05
0.00169769
0.201881
-4.84311e-05
0.00159959
0.184874
0.0014791
0.163865
-2.87315e-08
6.3753e-05
0.00133753
0.15148
-3.65693e-09
9.28498e-05
0.00143458
0.17268
8.67071e-05
0.00151171
0.189703
5.152e-05
0.00156463
0.201631
-2.42939e-08
0.00159165
0.207772
-5.15675e-05
0.00159165
0.207772
-8.67513e-05
0.00156463
0.201631
-9.28889e-05
0.00151171
0.189703
-6.37859e-05
0.00143459
0.17268
0.00133754
0.15148
-2.99141e-08
7.8848e-05
0.133631
-4.21975e-09
0.00110056
0.000114432
0.154805
0.00116681
0.000106645
0.171584
0.00121946
6.32362e-05
0.183249
0.00125569
-2.56353e-08
0.189227
0.00127414
-6.32862e-05
0.189227
0.00127414
-0.000106691
0.183249
0.00125569
-0.000114472
0.171584
0.00121946
-7.88816e-05
0.154805
0.00116681
0.13363
-3.03426e-08
0.00110056
-3.70534e-07
1.75773e-05
0.0288066
-1.07942e-10
-5.75739e-07
1.94862e-05
0.0317909
-4.66558e-07
2.12457e-05
0.0343001
-2.60529e-07
2.27009e-05
0.0361151
-9.40812e-10
2.3487e-05
0.0370677
2.58653e-07
2.34871e-05
0.0370677
4.64709e-07
2.2701e-05
0.0361151
5.73905e-07
2.12459e-05
0.0343001
3.68728e-07
1.94865e-05
0.0317909
1.75775e-05
0.0288066
-1.68422e-09
-5.10913e-07
8.05211e-05
0.0774236
-3.24357e-10
-8.72165e-07
8.96944e-05
0.0854664
-7.41273e-07
9.78974e-05
0.0922078
-4.11958e-07
0.000104295
0.0970713
-3.01182e-09
0.00010775
0.0996202
4.05975e-07
0.000107751
0.0996202
7.35429e-07
0.000104296
0.0970713
8.66453e-07
9.78982e-05
0.0922077
5.05383e-07
8.96955e-05
0.0854664
8.05217e-05
0.0774236
-5.06896e-09
2.36244e-07
0.000180385
0.114967
-5.5547e-10
1.44536e-07
0.000201078
0.127083
1.7041e-07
0.000219296
0.137196
1.30063e-07
0.000233169
0.144473
-5.18351e-09
0.000240638
0.148281
-1.40322e-07
0.000240638
0.148281
-1.80404e-07
0.000233169
0.144473
-1.53674e-07
0.000219297
0.137196
-2.44227e-07
0.00020108
0.127082
0.000180387
0.114967
-8.24532e-09
1.93128e-06
0.00029876
0.142196
-8.22661e-10
2.6871e-06
0.000332403
0.157492
2.54741e-06
0.000361757
0.170199
1.54387e-06
0.000383755
0.179313
-7.41491e-09
0.000395535
0.184074
-1.55854e-06
0.000395535
0.184074
-2.56158e-06
0.000383757
0.179313
-2.70053e-06
0.000361759
0.170199
-1.94357e-06
0.000332405
0.157492
0.000298763
0.142196
-1.14933e-08
4.74686e-06
0.000413615
0.159892
-1.1047e-09
6.88276e-06
0.000458572
0.177572
6.48966e-06
0.00049739
0.192176
3.89519e-06
0.000526076
0.202615
-9.6448e-09
0.000541339
0.208057
-3.91423e-06
0.00054134
0.208057
-6.50795e-06
0.000526077
0.202615
-6.89984e-06
0.000497393
0.192176
-4.76228e-06
0.000458575
0.177572
0.000413619
0.159892
-1.43754e-08
8.63821e-06
0.000504183
0.168856
-1.40497e-09
1.2662e-05
0.000556259
0.188218
1.19329e-05
0.000600642
0.204113
7.14392e-06
0.000632981
0.21543
-1.18243e-08
0.000650063
0.221315
-7.16721e-06
0.000650064
0.221315
-1.19551e-05
0.000632983
0.21543
-1.26825e-05
0.000600645
0.204113
-8.65642e-06
0.000556263
0.188218
0.000504187
0.168856
-1.68652e-08
1.34776e-05
0.000554779
0.1699
-1.72533e-09
1.98119e-05
0.000608337
0.190343
1.86598e-05
0.00065325
0.207012
1.11539e-05
0.000685486
0.218828
-1.38893e-08
0.000702369
0.224957
-1.11812e-05
0.00070237
0.224957
-1.86856e-05
0.000685488
0.218828
-1.98355e-05
0.000653254
0.207012
-1.34983e-05
0.000608341
0.190343
0.000554783
0.1699
-1.89573e-08
1.90988e-05
0.000557231
0.163844
-2.04455e-09
2.80532e-05
0.000606539
0.184867
2.63619e-05
0.000647093
0.201889
1.57241e-05
0.000675699
0.213893
-1.57556e-08
0.000690529
0.220099
-1.5755e-05
0.00069053
0.220099
-2.6391e-05
0.000675701
0.213893
-2.80794e-05
0.000647095
0.201889
-1.91213e-05
0.000606543
0.184867
0.000557235
0.163844
-2.06147e-08
2.54342e-05
0.000511725
0.1515
-2.37377e-09
3.70744e-05
0.000552345
0.172722
3.46445e-05
0.00058482
0.189768
2.05942e-05