/*--------------------------------*- C++ -*----------------------------------*\
| =========                 |                                                 |
| \\      /  F ield         | OpenFOAM: The Open Source CFD Toolbox           |
|  \\    /   O peration     | Version:  2106                                  |
|   \\  /    A nd           | Website:  www.openfoam.com                      |
|    \\/     M anipulation  |                                                 |
\*---------------------------------------------------------------------------*/
FoamFile
{
    version     2.0;
    format      ascii;
    arch        "LSB;label=32;scalar=64";
    class       volVectorField;
    location    "0.19";
    object      U;
}
// * * * * * * * * * * * * * * * * * * * * * * * * * * * * * * * * * * * * * //

dimensions      [0 1 -1 0 0 0 0];

internalField   nonuniform List<vector> 
10000
(
(0.0625518 0.0737135 0.345117)
(0.0533449 0.0838315 0.359603)
(0.0398387 0.0929788 0.370973)
(0.0247131 0.0993583 0.378825)
(0.00837505 0.102656 0.382816)
(-0.00837507 0.102656 0.382816)
(-0.0247131 0.0993583 0.378825)
(-0.0398387 0.0929788 0.370973)
(-0.0533449 0.0838315 0.359603)
(-0.0625518 0.0737135 0.345117)
(0.171685 0.203708 0.728154)
(0.144893 0.230845 0.747835)
(0.108154 0.254707 0.762503)
(0.0669057 0.271219 0.772419)
(0.0226459 0.279733 0.777378)
(-0.0226459 0.279733 0.777378)
(-0.0669058 0.271219 0.772419)
(-0.108154 0.254706 0.762503)
(-0.144893 0.230845 0.747835)
(-0.171685 0.203708 0.728154)
(0.221484 0.26304 0.924424)
(0.184777 0.29443 0.940299)
(0.13701 0.321826 0.951403)
(0.084321 0.340548 0.958732)
(0.0284675 0.350135 0.962328)
(-0.0284676 0.350135 0.962328)
(-0.0843211 0.340548 0.958732)
(-0.13701 0.321826 0.951403)
(-0.184777 0.29443 0.940299)
(-0.221484 0.263039 0.924424)
(0.23536 0.279095 1.02382)
(0.194342 0.308361 1.03436)
(0.143153 0.333946 1.04106)
(0.087667 0.351213 1.04534)
(0.0295253 0.35999 1.04739)
(-0.0295254 0.35999 1.04739)
(-0.087667 0.351213 1.04534)
(-0.143153 0.333946 1.04106)
(-0.194342 0.308361 1.03436)
(-0.23536 0.279095 1.02382)
(0.232034 0.274696 1.0723)
(0.189908 0.299765 1.07826)
(0.139075 0.321809 1.08139)
(0.0847931 0.336529 1.08326)
(0.0284963 0.343957 1.0841)
(-0.0284964 0.343957 1.0841)
(-0.0847932 0.336529 1.08326)
(-0.139075 0.321809 1.08139)
(-0.189908 0.299765 1.07826)
(-0.232034 0.274696 1.0723)
(0.21955 0.259486 1.09332)
(0.178202 0.279682 1.09585)
(0.1298 0.297588 1.09645)
(0.0788077 0.309447 1.09666)
(0.0264315 0.315387 1.09668)
(-0.0264317 0.315387 1.09668)
(-0.0788078 0.309447 1.09666)
(-0.1298 0.297588 1.09645)
(-0.178202 0.279682 1.09585)
(-0.21955 0.259486 1.09332)
(0.201809 0.237956 1.09969)
(0.162431 0.253129 1.09985)
(0.117699 0.266734 1.09882)
(0.0711727 0.275703 1.09797)
(0.0238244 0.280166 1.0975)
(-0.0238246 0.280166 1.0975)
(-0.0711729 0.275703 1.09797)
(-0.117699 0.266734 1.09882)
(-0.162431 0.253129 1.09985)
(-0.201809 0.237956 1.09969)
(0.181292 0.213012 1.0986)
(0.144671 0.223334 1.09722)
(0.104317 0.232746 1.09526)
(0.0628442 0.238966 1.09382)
(0.020998 0.242056 1.09306)
(-0.0209983 0.242056 1.09306)
(-0.0628444 0.238966 1.09382)
(-0.104317 0.232746 1.09526)
(-0.144671 0.223334 1.09722)
(-0.181292 0.213012 1.0986)
(0.159642 0.186585 1.0941)
(0.126394 0.192384 1.09177)
(0.0907221 0.197873 1.08933)
(0.0544642 0.201615 1.08762)
(0.0181672 0.20349 1.08675)
(-0.0181675 0.20349 1.08675)
(-0.0544644 0.201615 1.08762)
(-0.0907224 0.197873 1.08933)
(-0.126395 0.192384 1.09177)
(-0.159642 0.186584 1.0941)
(0.138091 0.160299 1.08848)
(0.108871 0.16036 1.08561)
(0.0775881 0.162721 1.08299)
(0.0464018 0.164465 1.08121)
(0.0154499 0.165359 1.08032)
(-0.0154502 0.165359 1.08032)
(-0.0464021 0.164465 1.08121)
(-0.0775883 0.162721 1.08299)
(-0.108871 0.16036 1.08561)
(-0.138091 0.160299 1.08848)
(0.0111221 0.0142161 0.268328)
(0.00933875 0.017487 0.280688)
(0.00705137 0.020112 0.290807)
(0.00446178 0.0219112 0.29785)
(0.00152645 0.0228481 0.301456)
(-0.00152647 0.0228481 0.301456)
(-0.0044618 0.0219112 0.29785)
(-0.00705139 0.020112 0.290807)
(-0.00933878 0.017487 0.280688)
(-0.0111221 0.0142161 0.268328)
(0.0534106 0.0646781 0.63497)
(0.0458201 0.0777813 0.65718)
(0.0350475 0.0889961 0.674986)
(0.022146 0.0969331 0.687231)
(0.0075769 0.101096 0.693447)
(-0.00757696 0.101096 0.693447)
(-0.022146 0.0969331 0.687231)
(-0.0350475 0.0889961 0.674986)
(-0.0458201 0.0777813 0.65718)
(-0.0534107 0.064678 0.63497)
(0.0950717 0.113661 0.88489)
(0.0809914 0.134283 0.909016)
(0.0615904 0.151948 0.927925)
(0.0386718 0.164389 0.940765)
(0.0131892 0.170877 0.94723)
(-0.0131893 0.170877 0.94723)
(-0.0386719 0.164389 0.940765)
(-0.0615905 0.151948 0.927925)
(-0.0809915 0.134283 0.909016)
(-0.0950718 0.113661 0.88489)
(0.128807 0.152875 1.05437)
(0.108719 0.177718 1.07652)
(0.08209 0.198877 1.09343)
(0.0512271 0.213651 1.10475)
(0.0174174 0.221307 1.1104)
(-0.0174175 0.221307 1.1104)
(-0.0512273 0.213651 1.10475)
(-0.0820902 0.198877 1.09343)
(-0.108719 0.177718 1.07652)
(-0.128807 0.152875 1.05437)
(0.151921 0.179306 1.16754)
(0.127023 0.205288 1.18595)
(0.095239 0.227242 1.19957)
(0.0590946 0.242435 1.20853)
(0.020035 0.250257 1.21296)
(-0.0200352 0.250257 1.21296)
(-0.0590948 0.242435 1.20853)
(-0.0952392 0.227242 1.19957)
(-0.127023 0.205288 1.18595)
(-0.151921 0.179306 1.16754)
(0.164743 0.193465 1.24102)
(0.136456 0.218181 1.25508)
(0.101617 0.238854 1.26508)
(0.0627152 0.253038 1.27151)
(0.0212056 0.260292 1.27464)
(-0.0212058 0.260292 1.27464)
(-0.0627155 0.253038 1.27151)
(-0.101618 0.238854 1.26508)
(-0.136456 0.218181 1.25508)
(-0.164744 0.193465 1.24102)
(0.16862 0.19703 1.28668)
(0.13835 0.218756 1.2965)
(0.102349 0.236681 1.30308)
(0.0628479 0.248883 1.30716)
(0.0211968 0.255087 1.3091)
(-0.0211971 0.255087 1.3091)
(-0.0628482 0.248883 1.30716)
(-0.10235 0.236681 1.30308)
(-0.138351 0.218756 1.2965)
(-0.16862 0.19703 1.28668)
(0.165155 0.191944 1.31313)
(0.134225 0.20954 1.31916)
(0.0986746 0.22379 1.32282)
(0.0603073 0.233429 1.32492)
(0.0202924 0.23831 1.32586)
(-0.0202927 0.23831 1.32586)
(-0.0603076 0.233429 1.32492)
(-0.0986749 0.22379 1.32282)
(-0.134225 0.20954 1.31916)
(-0.165156 0.191944 1.31313)
(0.156002 0.180119 1.32659)
(0.125667 0.19292 1.32948)
(0.0918313 0.202968 1.33082)
(0.0558742 0.209784 1.33139)
(0.0187591 0.213232 1.33157)
(-0.0187595 0.213232 1.33157)
(-0.0558746 0.209784 1.33139)
(-0.0918317 0.202968 1.33082)
(-0.125668 0.19292 1.32948)
(-0.156002 0.180119 1.32659)
(0.142854 0.164269 1.33163)
(0.114347 0.170204 1.3321)
(0.0828837 0.17602 1.33176)
(0.0501809 0.180012 1.33125)
(0.0168075 0.182034 1.3309)
(-0.016808 0.182034 1.3309)
(-0.0501813 0.180012 1.33125)
(-0.0828841 0.17602 1.33176)
(-0.114348 0.170204 1.3321)
(-0.142854 0.164269 1.33163)
(0.00104778 0.00116638 0.162165)
(0.00106616 0.00149297 0.170697)
(0.000832166 0.00188254 0.177807)
(0.000556644 0.00217157 0.182838)
(0.000194005 0.00233158 0.185442)
(-0.000194025 0.00233158 0.185442)
(-0.000556664 0.00217156 0.182838)
(-0.000832187 0.00188253 0.177807)
(-0.00106618 0.00149295 0.170697)
(-0.0010478 0.00116636 0.162165)
(0.0169485 0.0196695 0.454314)
(0.0152427 0.023982 0.475076)
(0.0119248 0.0280512 0.492094)
(0.00765424 0.031054 0.504031)
(0.00263685 0.0326658 0.510174)
(-0.00263692 0.0326658 0.510174)
(-0.0076543 0.031054 0.504031)
(-0.0119249 0.0280512 0.492094)
(-0.0152427 0.023982 0.475076)
(-0.0169486 0.0196694 0.454314)
(0.0382026 0.04449 0.703966)
(0.0337055 0.053368 0.732133)
(0.0261547 0.0614742 0.754836)
(0.0166439 0.0673891 0.770618)
(0.00571176 0.0705348 0.778694)
(-0.00571186 0.0705348 0.778694)
(-0.016644 0.0673891 0.770618)
(-0.0261548 0.0614742 0.754836)
(-0.0337056 0.053368 0.732133)
(-0.0382027 0.0444899 0.703966)
(0.0606231 0.0706774 0.909768)
(0.0527336 0.0835122 0.941171)
(0.0405865 0.0949906 0.966019)
(0.0256491 0.103267 0.983118)
(0.00877299 0.107633 0.991815)
(-0.00877313 0.107633 0.991815)
(-0.0256492 0.103267 0.983118)
(-0.0405866 0.0949905 0.966019)
(-0.0527337 0.0835121 0.941171)
(-0.0606232 0.0706773 0.909768)
(0.0800191 0.0932083 1.07464)
(0.0687495 0.108511 1.10608)
(0.052497 0.121977 1.13045)
(0.0329713 0.131578 1.14703)
(0.0112436 0.136605 1.15541)
(-0.0112437 0.136605 1.15541)
(-0.0329715 0.131578 1.14703)
(-0.0524972 0.121977 1.13045)
(-0.0687496 0.108511 1.10608)
(-0.0800193 0.0932082 1.07464)
(0.0944438 0.109752 1.20334)
(0.0802176 0.125856 1.23257)
(0.0607898 0.139814 1.25473)
(0.0379604 0.149664 1.26961)
(0.0129084 0.154786 1.27707)
(-0.0129087 0.154786 1.27707)
(-0.0379606 0.149664 1.26961)
(-0.06079 0.139814 1.25473)
(-0.0802178 0.125856 1.23257)
(-0.094444 0.109752 1.20334)
(0.103336 0.11968 1.3012)
(0.0868063 0.135074 1.32686)
(0.0652993 0.148203 1.34582)
(0.0405544 0.15738 1.35838)
(0.0137535 0.162122 1.36461)
(-0.0137538 0.162122 1.36461)
(-0.0405547 0.15738 1.35838)
(-0.0652995 0.148202 1.34582)
(-0.0868065 0.135074 1.32686)
(-0.103336 0.11968 1.3012)
(0.106838 0.123191 1.37355)
(0.0887839 0.136647 1.39496)
(0.066313 0.147902 1.41038)
(0.0409707 0.155706 1.42043)
(0.0138591 0.159717 1.42536)
(-0.0138595 0.159717 1.42536)
(-0.040971 0.155706 1.42043)
(-0.0663133 0.147902 1.41038)
(-0.0887842 0.136647 1.39496)
(-0.106838 0.123191 1.37355)
(0.105545 0.120966 1.42526)
(0.0868145 0.131574 1.44241)
(0.064382 0.140185 1.45442)
(0.0395705 0.146136 1.46209)
(0.0133509 0.149183 1.46581)
(-0.0133513 0.149183 1.46581)
(-0.0395709 0.146136 1.46209)
(-0.0643823 0.140185 1.45442)
(-0.0868148 0.131574 1.44241)
(-0.105545 0.120966 1.42526)
(0.100403 0.114711 1.46063)
(0.0818195 0.120678 1.47416)
(0.0600939 0.126174 1.48319)
(0.0367131 0.129966 1.48881)
(0.0123506 0.1319 1.49148)
(-0.012351 0.1319 1.49148)
(-0.0367135 0.129966 1.48881)
(-0.0600943 0.126174 1.48319)
(-0.0818198 0.120678 1.47416)
(-0.100404 0.114711 1.46063)
(0.000661095 0.000874993 0.144713)
(0.000511683 0.00109802 0.151867)
(0.000347241 0.00125406 0.15768)
(0.000213352 0.00134503 0.16176)
(7.11132e-05 0.00138996 0.163864)
(-7.11294e-05 0.00138996 0.163864)
(-0.000213369 0.00134503 0.16176)
(-0.000347259 0.00125405 0.15768)
(-0.000511702 0.00109801 0.151867)
(-0.000661113 0.000874978 0.144713)
(0.00623959 0.0074893 0.414225)
(0.00539759 0.00923105 0.433108)
(0.00413839 0.0107321 0.448357)
(0.0026346 0.0118032 0.459021)
(0.00090383 0.0123714 0.464507)
(-0.00090388 0.0123714 0.464507)
(-0.00263465 0.0118032 0.459021)
(-0.00413845 0.0107321 0.448357)
(-0.00539764 0.00923102 0.433108)
(-0.00623964 0.00748926 0.414225)
(0.0150847 0.017863 0.656152)
(0.0131139 0.0217243 0.68367)
(0.0101213 0.0251021 0.705695)
(0.00643519 0.0275411 0.721015)
(0.00220779 0.028835 0.728869)
(-0.00220787 0.028835 0.728869)
(-0.00643527 0.0275411 0.721015)
(-0.0101214 0.0251021 0.705695)
(-0.013114 0.0217243 0.68367)
(-0.0150848 0.0178629 0.656152)
(0.0255404 0.0300655 0.867497)
(0.0221223 0.0360887 0.900396)
(0.0170449 0.0413546 0.926421)
(0.0107997 0.0451519 0.944398)
(0.00369939 0.0471592 0.953574)
(-0.00369951 0.0471592 0.953574)
(-0.0107998 0.0451519 0.944398)
(-0.017045 0.0413546 0.926421)
(-0.0221224 0.0360887 0.900396)
(-0.0255405 0.0300654 0.867497)
(0.0357698 0.0419179 1.04754)
(0.0307708 0.0496293 1.08281)
(0.0235992 0.0563264 1.11031)
(0.0148868 0.0611275 1.12915)
(0.00508851 0.0636528 1.13871)
(-0.00508867 0.0636528 1.13871)
(-0.0148869 0.0611275 1.12915)
(-0.0235993 0.0563264 1.11031)
(-0.030771 0.0496292 1.08281)
(-0.0357699 0.0419178 1.04754)
(0.0445107 0.0519334 1.19727)
(0.0379711 0.0605942 1.23237)
(0.0289496 0.068037 1.25929)
(0.0181736 0.0733317 1.27755)
(0.00619719 0.076101 1.28677)
(-0.00619739 0.076101 1.28677)
(-0.0181738 0.0733316 1.27755)
(-0.0289498 0.0680369 1.25929)
(-0.0379713 0.0605942 1.23237)
(-0.0445109 0.0519333 1.19727)
(0.0510055 0.0592381 1.3188)
(0.0431107 0.068029 1.35179)
(0.0326537 0.0754778 1.37664)
(0.020396 0.0807324 1.39333)
(0.00693767 0.0834652 1.4017)
(-0.00693791 0.0834652 1.4017)
(-0.0203962 0.0807324 1.39333)
(-0.0326539 0.0754778 1.37664)
(-0.0431109 0.0680289 1.35179)
(-0.0510057 0.059238 1.3188)
(0.0548764 0.0634002 1.41493)
(0.0459319 0.0715388 1.44453)
(0.0345554 0.0783122 1.46644)
(0.0214745 0.0830498 1.48098)
(0.00728607 0.0855005 1.48822)
(-0.00728635 0.0855005 1.48822)
(-0.0214748 0.0830497 1.48098)
(-0.0345556 0.0783121 1.46644)
(-0.0459321 0.0715388 1.44453)
(-0.0548766 0.0634001 1.41493)
(0.0560889 0.0643526 1.48876)
(0.0464925 0.0711752 1.51443)
(0.0347292 0.0766931 1.53308)
(0.0214676 0.0805295 1.5453)
(0.00726418 0.0825042 1.55133)
(-0.00726449 0.0825042 1.55133)
(-0.0214679 0.0805295 1.5453)
(-0.0347295 0.0766931 1.53308)
(-0.0464927 0.0711751 1.51443)
(-0.0560891 0.0643525 1.48876)
(0.0549279 0.0628057 1.54335)
(0.0450897 0.0671344 1.56554)
(0.0333541 0.0709225 1.58105)
(0.0204877 0.0735402 1.59102)
(0.00691091 0.0748792 1.59588)
(-0.00691124 0.0748792 1.59588)
(-0.020488 0.0735402 1.59102)
(-0.0333544 0.0709225 1.58105)
(-0.0450899 0.0671344 1.56554)
(-0.0549281 0.0628057 1.54335)
(0.000100557 0.00010645 0.135284)
(9.58042e-05 0.000141796 0.142049)
(7.06893e-05 0.000180328 0.147536)
(4.82387e-05 0.00020742 0.151391)
(1.66185e-05 0.000222718 0.153381)
(-1.66317e-05 0.000222717 0.153381)
(-4.82524e-05 0.000207417 0.151391)
(-7.07038e-05 0.000180322 0.147536)
(-9.58196e-05 0.000141787 0.142049)
(-0.000100572 0.000106438 0.135284)
(0.00202207 0.00233557 0.391129)
(0.0018118 0.00289815 0.409372)
(0.00141834 0.00342135 0.424109)
(0.000915744 0.00380997 0.434436)
(0.000316017 0.00402065 0.439756)
(-0.000316058 0.00402064 0.439756)
(-0.000915786 0.00380996 0.434436)
(-0.00141838 0.00342133 0.424109)
(-0.00181185 0.00289813 0.409372)
(-0.00202212 0.00233554 0.391129)
(0.00548033 0.00635995 0.625496)
(0.00486626 0.00779102 0.652713)
(0.00380914 0.00909588 0.674549)
(0.00244465 0.0100641 0.689789)
(0.000842271 0.0105851 0.697618)
(-0.00084234 0.0105851 0.697618)
(-0.00244472 0.0100641 0.689789)
(-0.00380921 0.00909586 0.674549)
(-0.00486634 0.00779099 0.652713)
(-0.00548039 0.00635991 0.625496)
(0.00997392 0.0115856 0.835583)
(0.00878619 0.0140193 0.869023)
(0.00685203 0.0162117 0.895599)
(0.00437675 0.0178286 0.914044)
(0.00150498 0.0186936 0.923486)
(-0.00150508 0.0186936 0.923486)
(-0.00437685 0.0178286 0.914044)
(-0.00685212 0.0162117 0.895599)
(-0.00878629 0.0140193 0.869023)
(-0.00997401 0.0115855 0.835583)
(0.0147587 0.0171237 1.01983)
(0.0128929 0.0204531 1.05676)
(0.010002 0.023419 1.08576)
(0.00635861 0.0255892 1.10575)
(0.00218165 0.0267438 1.11594)
(-0.00218177 0.0267438 1.11594)
(-0.00635874 0.0255892 1.10575)
(-0.0100021 0.0234189 1.08576)
(-0.012893 0.0204531 1.05676)
(-0.0147588 0.0171236 1.01983)
(0.019211 0.0222334 1.17789)
(0.0166334 0.026184 1.21581)
(0.012825 0.0296601 1.24519)
(0.00811341 0.0321822 1.26527)
(0.00277712 0.0335162 1.27546)
(-0.00277728 0.0335162 1.27546)
(-0.00811356 0.0321822 1.26527)
(-0.0128252 0.0296601 1.24519)
(-0.0166335 0.026184 1.21581)
(-0.0192111 0.0222333 1.17789)
(0.0228653 0.0263693 1.31042)
(0.0196109 0.0305739 1.34727)
(0.0150206 0.0342208 1.37538)
(0.00945433 0.0368434 1.39444)
(0.00322804 0.0382224 1.40405)
(-0.00322823 0.0382224 1.40405)
(-0.00945451 0.0368434 1.39444)
(-0.0150208 0.0342208 1.37538)
(-0.0196111 0.0305739 1.34727)
(-0.0228655 0.0263693 1.31042)
(0.0254127 0.0291695 1.41889)
(0.0215815 0.0332322 1.45313)
(0.016415 0.0366955 1.47887)
(0.0102782 0.0391631 1.49616)
(0.0035002 0.040453 1.50482)
(-0.00350041 0.040453 1.50482)
(-0.0102784 0.0391631 1.49616)
(-0.0164152 0.0366955 1.47887)
(-0.0215817 0.0332322 1.45313)
(-0.0254129 0.0291695 1.41889)
(0.0267207 0.0304647 1.50522)
(0.0224639 0.0340175 1.53604)
(0.0169561 0.0369616 1.55887)
(0.0105562 0.039041 1.57403)
(0.00358445 0.0401211 1.58157)
(-0.00358468 0.0401211 1.58157)
(-0.0105564 0.039041 1.57403)
(-0.0169563 0.0369616 1.55887)
(-0.0224641 0.0340175 1.53604)
(-0.0267209 0.0304647 1.50522)
(0.0268348 0.0305174 1.57147)
(0.0223023 0.0329363 1.59923)
(0.0166543 0.0350443 1.61905)
(0.0102955 0.0365159 1.63199)
(0.00348365 0.0372736 1.63836)
(-0.00348389 0.0372736 1.63836)
(-0.0102957 0.0365159 1.63199)
(-0.0166545 0.0350443 1.61905)
(-0.0223025 0.0329363 1.59923)
(-0.026835 0.0305174 1.57147)
(6.61405e-05 9.04416e-05 0.133137)
(4.53598e-05 0.000114913 0.139746)
(2.67292e-05 0.000128827 0.145074)
(1.56499e-05 0.000135235 0.148813)
(4.96704e-06 0.000138094 0.15074)
(-4.97773e-06 0.000138093 0.15074)
(-1.56608e-05 0.000135233 0.148813)
(-2.67405e-05 0.000128822 0.145074)
(-4.53714e-05 0.000114906 0.139746)
(-6.61516e-05 9.04324e-05 0.133137)
(0.000788268 0.000947744 0.384952)
(0.000671778 0.00117614 0.402855)
(0.000509675 0.00136669 0.417259)
(0.000323612 0.00150159 0.427342)
(0.000110774 0.00157315 0.432533)
(-0.000110806 0.00157314 0.432533)
(-0.000323645 0.00150158 0.427342)
(-0.000509709 0.00136668 0.417258)
(-0.000671812 0.00117612 0.402855)
(-0.0007883 0.00094772 0.384952)
(0.00214488 0.00253674 0.616564)
(0.00186299 0.00311798 0.643473)
(0.00143929 0.00362237 0.665003)
(0.000917558 0.00398943 0.680024)
(0.000315151 0.00418529 0.68774)
(-0.000315205 0.00418529 0.68774)
(-0.000917612 0.00398942 0.680024)
(-0.00143934 0.00362235 0.665003)
(-0.00186304 0.00311796 0.643473)
(-0.00214493 0.00253671 0.616564)
(0.00397778 0.00467238 0.825794)
(0.00346628 0.00568585 0.859191)
(0.00268783 0.00657473 0.8857)
(0.00171268 0.00722492 0.904105)
(0.000588318 0.00757175 0.913531)
(-0.000588392 0.00757175 0.913531)
(-0.00171275 0.00722491 0.904105)
(-0.00268791 0.00657471 0.8857)
(-0.00346636 0.00568582 0.859191)
(-0.00397785 0.00467234 0.825794)
(0.00602922 0.00704783 1.01121)
(0.00524108 0.00847941 1.04854)
(0.00405858 0.00973491 1.07787)
(0.00257983 0.0106514 1.09811)
(0.000885231 0.0111388 1.10844)
(-0.000885325 0.0111388 1.10844)
(-0.00257992 0.0106513 1.09811)
(-0.00405868 0.00973488 1.07787)
(-0.00524117 0.00847938 1.04854)
(-0.00602931 0.00704778 1.01121)
(0.00804743 0.00936501 1.17226)
(0.00695791 0.0111215 1.21113)
(0.00536758 0.0126526 1.24129)
(0.00339986 0.0137644 1.26196)
(0.00116462 0.0143532 1.27246)
(-0.00116474 0.0143532 1.27246)
(-0.00339997 0.0137643 1.26196)
(-0.00536769 0.0126526 1.24129)
(-0.00695802 0.0111215 1.21113)
(-0.00804753 0.00936496 1.17226)
(0.00981227 0.0113656 1.3092)
(0.00842271 0.0132978 1.34754)
(0.00646369 0.0149646 1.3769)
(0.00407689 0.0161662 1.39687)
(0.00139361 0.0167996 1.40696)
(-0.00139375 0.0167996 1.40696)
(-0.00407702 0.0161662 1.39687)
(-0.00646382 0.0149645 1.3769)
(-0.00842283 0.0132978 1.34754)
(-0.00981239 0.0113656 1.3092)
(0.0111508 0.0128456 1.42302)
(0.00949152 0.0147743 1.45923)
(0.00723962 0.0164142 1.48661)
(0.00454478 0.0175866 1.50508)
(0.00154985 0.0182012 1.51436)
(-0.00155001 0.0182012 1.51436)
(-0.00454493 0.0175866 1.50508)
(-0.00723976 0.0164142 1.48661)
(-0.00949165 0.0147743 1.45923)
(-0.0111509 0.0128456 1.42302)
(0.0119612 0.0136759 1.5151)
(0.0100884 0.0154203 1.54829)
(0.00764022 0.0168659 1.57306)
(0.00476988 0.0178903 1.58959)
(0.00162204 0.0184238 1.59785)
(-0.00162221 0.0184238 1.59785)
(-0.00477004 0.0178903 1.58959)
(-0.00764037 0.0168659 1.57306)
(-0.0100885 0.0154203 1.54828)
(-0.0119614 0.0136759 1.5151)
(0.0122258 0.0139354 1.58699)
(0.0101964 0.0151851 1.61747)
(0.00764178 0.016262 1.63943)
(0.00473764 0.0170156 1.65386)
(0.0016054 0.0174045 1.66099)
(-0.00160557 0.0174045 1.66099)
(-0.0047378 0.0170156 1.65386)
(-0.00764194 0.016262 1.63943)
(-0.0101965 0.0151851 1.61747)
(-0.012226 0.0139354 1.58699)
(6.96212e-06 7.83198e-06 0.132014)
(4.95385e-06 1.13207e-05 0.138575)
(2.53591e-06 1.40006e-05 0.143863)
(1.88076e-06 1.55587e-05 0.147574)
(6.11998e-07 1.64443e-05 0.149486)
(-6.20472e-07 1.64437e-05 0.149486)
(-1.88926e-06 1.55567e-05 0.147574)
(-2.54453e-06 1.39972e-05 0.143863)
(-4.96242e-06 1.13157e-05 0.138575)
(-6.96998e-06 7.82531e-06 0.132014)
(0.000249239 0.00029011 0.381827)
(0.000218341 0.00036282 0.399614)
(0.000168834 0.000427234 0.413918)
(0.00010874 0.000474669 0.423935)
(3.74465e-05 0.000500363 0.429091)
(-3.74717e-05 0.000500361 0.429091)
(-0.000108765 0.000474663 0.423935)
(-0.000168859 0.000427224 0.413918)
(-0.000218365 0.000362807 0.399614)
(-0.000249261 0.000290092 0.381827)
(0.000746384 0.000868237 0.611955)
(0.000658345 0.00107381 0.638743)
(0.000514439 0.00125773 0.660175)
(0.000330566 0.00139461 0.675134)
(0.000113945 0.00146851 0.682819)
(-0.000113986 0.00146851 0.682819)
(-0.000330607 0.0013946 0.675134)
(-0.000514479 0.00125771 0.660175)
(-0.000658385 0.00107379 0.638743)
(-0.00074642 0.000868211 0.611955)
(0.00145774 0.00169348 0.820443)
(0.0012851 0.0020732 0.853805)
(0.00100547 0.00241323 0.880296)
(0.00064465 0.00266621 0.898701)
(0.000222086 0.00280239 0.908129)
(-0.000222142 0.00280238 0.908129)
(-0.000644706 0.0026662 0.898701)
(-0.00100553 0.00241321 0.880296)
(-0.00128515 0.00207318 0.853805)
(-0.00145779 0.00169345 0.820443)
(0.00229174 0.0026561 1.00596)
(0.00201273 0.00321537 1.04343)
(0.00157142 0.0037143 1.07289)
(0.00100454 0.00408399 1.09324)
(0.000345634 0.00428225 1.10363)
(-0.000345705 0.00428224 1.10363)
(-0.00100461 0.00408398 1.09324)
(-0.00157149 0.00371429 1.07289)
(-0.0020128 0.00321535 1.04343)
(-0.0022918 0.00265606 1.00596)
(0.00314901 0.00363799 1.16793)
(0.00274976 0.00434802 1.20716)
(0.00213826 0.0049768 1.23765)
(0.00136192 0.00543988 1.25858)
(0.000467792 0.00568712 1.26921)
(-0.000467876 0.00568712 1.26921)
(-0.00136201 0.00543987 1.25858)
(-0.00213834 0.00497678 1.23765)
(-0.00274984 0.00434799 1.20716)
(-0.00314908 0.00363796 1.16793)
(0.00393452 0.00452726 1.30649)
(0.00341093 0.00533165 1.34544)
(0.00263851 0.00603652 1.37534)
(0.00167345 0.00655177 1.39571)
(0.000573594 0.00682547 1.40602)
(-0.000573692 0.00682547 1.40602)
(-0.00167354 0.00655176 1.39571)
(-0.0026386 0.0060365 1.37534)
(-0.00341102 0.00533163 1.34544)
(-0.00393461 0.00452722 1.30649)
(0.00456681 0.00522759 1.42245)
(0.00392631 0.00605222 1.45952)
(0.00301852 0.00676466 1.48764)
(0.00190529 0.00728075 1.50665)
(0.000651476 0.00755328 1.51622)
(-0.000651585 0.00755328 1.51622)
(-0.0019054 0.00728074 1.50665)
(-0.00301862 0.00676464 1.48764)
(-0.0039264 0.00605219 1.45952)
(-0.0045669 0.00522756 1.42245)
(0.00499185 0.005672 1.51699)
(0.00425182 0.00643758 1.55125)
(0.00324446 0.00708176 1.57692)
(0.00203605 0.00754337 1.59411)
(0.000694116 0.00778525 1.60271)
(-0.000694235 0.00778525 1.60271)
(-0.00203617 0.00754336 1.59411)
(-0.00324458 0.00708175 1.57692)
(-0.00425193 0.00643757 1.55125)
(-0.00499195 0.00567198 1.51699)
(0.00518973 0.0058856 1.59141)
(0.0043656 0.00645557 1.62317)
(0.00329429 0.00694631 1.64615)
(0.00205178 0.00729227 1.6613)
(0.000696811 0.0074716 1.66881)
(-0.000696934 0.0074716 1.66881)
(-0.0020519 0.00729226 1.6613)
(-0.00329441 0.00694631 1.64615)
(-0.00436571 0.00645556 1.62317)
(-0.00518983 0.00588559 1.59141)
(6.7374e-06 1.05393e-05 0.131766)
(3.1219e-06 1.3676e-05 0.138309)
(8.45777e-07 1.47512e-05 0.143577)
(2.25506e-07 1.48565e-05 0.147273)
(-5.52342e-09 1.47952e-05 0.149178)
(-1.0301e-09 1.47947e-05 0.149178)
(-2.31914e-07 1.4855e-05 0.147273)
(-8.52101e-07 1.47487e-05 0.143577)
(-3.12804e-06 1.36724e-05 0.138309)
(-6.74286e-06 1.05348e-05 0.131766)
(9.84827e-05 0.000120676 0.381002)
(8.09357e-05 0.000150812 0.398737)
(5.99582e-05 0.000174281 0.412988)
(3.76677e-05 0.000190454 0.422966)
(1.28081e-05 0.000198928 0.428102)
(-1.28273e-05 0.000198927 0.428102)
(-3.76864e-05 0.000190449 0.422966)
(-5.99765e-05 0.000174274 0.412988)
(-8.09534e-05 0.000150802 0.398737)
(-9.84984e-05 0.000120664 0.381002)
(0.000288649 0.000343616 0.610635)
(0.000247676 0.000425693 0.63736)
(0.000190119 0.000495059 0.658729)
(0.000120934 0.000545332 0.673643)
(4.1476e-05 0.00057214 0.681304)
(-4.1507e-05 0.000572138 0.681304)
(-0.000120964 0.000545326 0.673643)
(-0.000190148 0.000495049 0.658729)
(-0.000247704 0.000425679 0.63736)
(-0.000288674 0.000343598 0.610635)
(0.000565328 0.000665414 0.818845)
(0.000491235 0.00081737 0.852168)
(0.0003809 0.000949262 0.878619)
(0.000243015 0.00104611 0.896997)
(8.35239e-05 0.00109795 0.906411)
(-8.35658e-05 0.00109794 0.906411)
(-0.000243056 0.0010461 0.896996)
(-0.00038094 0.000949249 0.878619)
(-0.000491274 0.000817352 0.852168)
(-0.000565363 0.000665391 0.818845)
(0.000898652 0.00105048 1.00438)
(0.000782985 0.00127746 1.04187)
(0.000608478 0.00147614 1.07134)
(0.000388091 0.00162238 1.09171)
(0.000133394 0.0017006 1.10211)
(-0.000133446 0.0017006 1.10211)
(-0.000388142 0.00162237 1.09171)
(-0.000608528 0.00147613 1.07134)
(-0.000783033 0.00127744 1.04187)
(-0.000898695 0.00105046 1.00438)
(0.0012521 0.00145557 1.16668)
(0.00108871 0.00174902 1.20602)
(0.000844803 0.00200574 1.23662)
(0.000537688 0.0021942 1.25762)
(0.000184632 0.00229474 1.2683)
(-0.000184694 0.00229473 1.2683)
(-0.000537748 0.00219419 1.25762)
(-0.000844862 0.00200573 1.23662)
(-0.00108877 0.001749 1.20602)
(-0.00125215 0.00145554 1.16668)
(0.00158716 0.00183533 1.30588)
(0.00137327 0.00217438 1.34506)
(0.00106169 0.00246906 1.37515)
(0.000673515 0.00268421 1.39567)
(0.000230896 0.00279851 1.40606)
(-0.000230967 0.00279851 1.40606)
(-0.000673585 0.0026842 1.39567)
(-0.00106176 0.00246905 1.37515)
(-0.00137334 0.00217436 1.34506)
(-0.00158722 0.0018353 1.30588)
(0.0018679 0.00214712 1.42272)
(0.00160522 0.00250176 1.46013)
(0.00123462 0.00280655 1.48854)
(0.000779926 0.00302731 1.50777)
(0.000266801 0.00314395 1.51745)
(-0.00026688 0.00314395 1.51745)
(-0.000780004 0.0030273 1.50777)
(-0.0012347 0.00280654 1.48854)
(-0.00160529 0.00250174 1.46013)
(-0.00186797 0.0021471 1.42272)
(0.00206783 0.00235778 1.51831)
(0.00176225 0.002694 1.55301)
(0.00134618 0.00297614 1.57906)
(0.000845762 0.00317838 1.59653)
(0.000288506 0.00328442 1.60527)
(-0.000288591 0.00328442 1.60527)
(-0.000845846 0.00317837 1.59653)
(-0.00134626 0.00297612 1.57906)
(-0.00176233 0.00269398 1.55301)
(-0.0020679 0.00235776 1.51831)
(0.002174 0.0024729 1.59384)
(0.00183073 0.00273021 1.62616)
(0.00138356 0.00295062 1.64959)
(0.000862891 0.00310612 1.66506)
(0.000293247 0.00318678 1.67273)
(-0.000293336 0.00318678 1.67273)
(-0.000862978 0.00310611 1.66506)
(-0.00138364 0.00295062 1.64959)
(-0.00183081 0.0027302 1.62616)
(-0.00217407 0.00247289 1.59384)
(-3.67386e-07 -1.62411e-07 0.13163)
(-8.82738e-07 1.19395e-07 0.138167)
(-1.02308e-06 8.34877e-08 0.143429)
(-6.70379e-07 -5.82979e-08 0.147122)
(-2.46168e-07 -1.41906e-07 0.149025)
(2.41324e-07 -1.42281e-07 0.149025)
(6.65642e-07 -5.94131e-08 0.147122)
(1.01852e-06 8.16498e-08 0.143429)
(8.78523e-07 1.16872e-07 0.138167)
(3.63722e-07 -1.65467e-07 0.13163)
(2.82717e-05 3.35662e-05 0.380588)
(2.37349e-05 4.25947e-05 0.398304)
(1.78741e-05 5.00211e-05 0.412539)
(1.13961e-05 5.53621e-05 0.422505)
(3.89672e-06 5.82291e-05 0.427636)
(-3.91075e-06 5.82281e-05 0.427636)
(-1.14098e-05 5.53591e-05 0.422505)
(-1.78872e-05 5.00162e-05 0.412539)
(-2.37472e-05 4.25881e-05 0.398304)
(-2.82822e-05 3.35581e-05 0.380588)
(9.44269e-05 0.000110481 0.60998)
(8.21923e-05 0.000138187 0.63668)
(6.3806e-05 0.000162307 0.658029)
(4.09186e-05 0.000180207 0.672928)
(1.40835e-05 0.000189866 0.680581)
(-1.4106e-05 0.000189865 0.680581)
(-4.09406e-05 0.000180202 0.672928)
(-6.38271e-05 0.000162299 0.658029)
(-8.22122e-05 0.000138177 0.63668)
(-9.44442e-05 0.000110469 0.60998)
(0.000196195 0.000228186 0.818031)
(0.000172361 0.000282453 0.851337)
(0.000134838 0.000330497 0.877773)
(8.65582e-05 0.000366386 0.896142)
(2.98326e-05 0.000385761 0.905552)
(-2.98629e-05 0.000385759 0.905552)
(-8.6588e-05 0.00036638 0.896142)
(-0.000134866 0.000330488 0.877773)
(-0.000172388 0.000282441 0.851337)
(-0.000196219 0.000228171 0.818031)
(0.000323476 0.000374543 1.00352)
(0.000284533 0.000458599 1.04101)
(0.000222858 0.000533329 1.07049)
(0.00014291 0.000589121 1.09087)
(4.92434e-05 0.000619187 1.10127)
(-4.9281e-05 0.000619185 1.10127)
(-0.000142947 0.000589115 1.09087)
(-0.000222894 0.000533319 1.07049)
(-0.000284567 0.000458585 1.04101)
(-0.000323506 0.000374526 1.00352)
(0.00046271 0.000533447 1.1659)
(0.000405926 0.000645114 1.20529)
(0.000317321 0.000744142 1.23592)
(0.000202995 0.000817781 1.25695)
(6.98715e-05 0.000857335 1.26764)
(-6.99157e-05 0.000857333 1.26764)
(-0.000203039 0.000817774 1.25695)
(-0.000317363 0.000744131 1.23592)
(-0.000405966 0.0006451 1.20529)
(-0.000462746 0.000533429 1.1659)
(0.000598756 0.00068706 1.30531)
(0.000522579 0.000818956 1.34457)
(0.000406912 0.00093508 1.37474)
(0.000259413 0.00102089 1.39532)
(8.91396e-05 0.00106677 1.40574)
(-8.91899e-05 0.00106677 1.40574)
(-0.000259462 0.00102088 1.39532)
(-0.00040696 0.000935069 1.37474)
(-0.000522624 0.000818941 1.34457)
(-0.000598797 0.000687043 1.30531)
(0.000716799 0.00081784 1.42247)
(0.0006213 0.000958475 1.46001)
(0.000481179 0.00108085 1.48854)
(0.000305411 0.00117047 1.50786)
(0.00010471 0.00121811 1.51759)
(-0.000104766 0.00121811 1.51759)
(-0.000305465 0.00117047 1.50786)
(-0.000481232 0.00108084 1.48854)
(-0.00062135 0.000958462 1.46001)
(-0.000716844 0.000817824 1.42247)
(0.000805385 0.000911717 1.51845)
(0.000692039 0.00104753 1.55334)
(0.000532074 0.00116271 1.57955)
(0.000335748 0.001246 1.59713)
(0.000114765 0.0012899 1.60594)
(-0.000114825 0.00128989 1.60594)
(-0.000335807 0.001246 1.59713)
(-0.000532131 0.0011627 1.57955)
(-0.000692093 0.00104752 1.55334)
(-0.000805435 0.000911703 1.51845)
(0.000857911 0.000970493 1.59443)
(0.000727496 0.00107708 1.62698)
(0.000552936 0.00116818 1.65059)
(0.000346157 0.00123279 1.6662)
(0.000117844 0.00126642 1.67394)
(-0.000117908 0.00126642 1.67394)
(-0.00034622 0.00123279 1.6662)
(-0.000552997 0.00116817 1.65059)
(-0.000727554 0.00107707 1.62697)
(-0.000857965 0.000970482 1.59442)
(5.53529e-07 1.21946e-06 0.131608)
(-1.16041e-07 1.6474e-06 0.138142)
(-4.02213e-07 1.66608e-06 0.143402)
(-3.37787e-07 1.54518e-06 0.147092)
(-1.34828e-07 1.4534e-06 0.148995)
(1.31371e-07 1.45313e-06 0.148995)
(3.34434e-07 1.5444e-06 0.147092)
(3.99056e-07 1.66482e-06 0.143402)
(1.13175e-07 1.6457e-06 0.138142)
(-5.55926e-07 1.21746e-06 0.131608)
(1.12648e-05 1.43933e-05 0.380492)
(8.57992e-06 1.82411e-05 0.3982)
(5.99711e-06 2.09096e-05 0.412427)
(3.64408e-06 2.26294e-05 0.422388)
(1.21391e-06 2.34995e-05 0.427515)
(-1.22386e-06 2.34988e-05 0.427515)