/*--------------------------------*- C++ -*----------------------------------*\
| =========                 |                                                 |
| \\      /  F ield         | OpenFOAM: The Open Source CFD Toolbox           |
|  \\    /   O peration     | Version:  2106                                  |
|   \\  /    A nd           | Website:  www.openfoam.com                      |
|    \\/     M anipulation  |                                                 |
\*---------------------------------------------------------------------------*/
FoamFile
{
    version     2.0;
    format      ascii;
    arch        "LSB;label=32;scalar=64";
    class       volVectorField;
    location    "0.01";
    object      U;
}
// * * * * * * * * * * * * * * * * * * * * * * * * * * * * * * * * * * * * * //

dimensions      [0 1 -1 0 0 0 0];

internalField   nonuniform List<vector> 
10000
(
(0.0435422 0.0508494 0.364342)
(0.0366511 0.0561956 0.376687)
(0.0272997 0.0611897 0.386597)
(0.016848 0.0646997 0.393254)
(0.00569547 0.0665164 0.396592)
(-0.0056955 0.0665164 0.396592)
(-0.016848 0.0646997 0.393254)
(-0.0272997 0.0611897 0.386597)
(-0.0366511 0.0561956 0.376687)
(-0.0435422 0.0508494 0.364342)
(0.0938799 0.110835 0.631056)
(0.0782593 0.121473 0.638889)
(0.0576682 0.131058 0.644628)
(0.0353106 0.137667 0.64817)
(0.0118896 0.141044 0.649847)
(-0.0118896 0.141044 0.649847)
(-0.0353107 0.137667 0.64817)
(-0.0576682 0.131058 0.644628)
(-0.0782593 0.121473 0.638889)
(-0.0938799 0.110835 0.631056)
(0.0943906 0.112559 0.71737)
(0.0780397 0.120298 0.718807)
(0.0568471 0.128014 0.719498)
(0.0345394 0.13325 0.719612)
(0.0115871 0.135909 0.719566)
(-0.0115872 0.135909 0.719566)
(-0.0345394 0.13325 0.719612)
(-0.0568471 0.128014 0.719498)
(-0.0780397 0.120298 0.718807)
(-0.0943905 0.112559 0.71737)
(0.0786175 0.0943758 0.736164)
(0.0655847 0.0991344 0.735034)
(0.0476127 0.104758 0.733455)
(0.0288534 0.108579 0.732082)
(0.00967012 0.110519 0.731303)
(-0.00967022 0.110519 0.731303)
(-0.0288535 0.108579 0.732082)
(-0.0476127 0.104758 0.733455)
(-0.0655847 0.0991345 0.735034)
(-0.0786174 0.0943758 0.736164)
(0.0646986 0.0784922 0.734186)
(0.054323 0.0805252 0.732005)
(0.0393466 0.0843705 0.729726)
(0.0237938 0.0870438 0.727946)
(0.00797042 0.0884135 0.726981)
(-0.00797054 0.0884135 0.726981)
(-0.0237939 0.0870438 0.727946)
(-0.0393466 0.0843705 0.729726)
(-0.0543231 0.0805252 0.732005)
(-0.0646985 0.0784923 0.734186)
(0.052053 0.0635923 0.726619)
(0.0444218 0.0640345 0.724805)
(0.0322807 0.0667155 0.722822)
(0.0195313 0.0686784 0.721255)
(0.00654852 0.0696964 0.7204)
(-0.00654865 0.0696964 0.7204)
(-0.0195314 0.0686784 0.721255)
(-0.0322807 0.0667155 0.722822)
(-0.0444218 0.0640345 0.724805)
(-0.0520529 0.0635924 0.726618)
(0.0424143 0.0520832 0.72051)
(0.0367086 0.0512154 0.719257)
(0.0267798 0.0528308 0.717734)
(0.016207 0.0541632 0.716478)
(0.00543766 0.0548738 0.71578)
(-0.00543777 0.0548738 0.71578)
(-0.0162072 0.0541632 0.716478)
(-0.0267799 0.0528308 0.717734)
(-0.0367086 0.0512154 0.719257)
(-0.0424142 0.0520833 0.72051)
(0.0343077 0.0420205 0.715745)
(0.0301398 0.0402881 0.71514)
(0.0221598 0.0409879 0.714179)
(0.0134347 0.0418225 0.7133)
(0.00451211 0.0422813 0.712792)
(-0.00451224 0.0422814 0.712792)
(-0.0134349 0.0418225 0.7133)
(-0.0221598 0.0409881 0.714179)
(-0.0301398 0.0402884 0.71514)
(-0.0343078 0.0420205 0.715745)
(0.0277095 0.0338576 0.711869)
(0.0248715 0.0314677 0.711888)
(0.0183178 0.0314513 0.711556)
(0.0111575 0.0317587 0.711113)
(0.00374286 0.0320061 0.710828)
(-0.00374292 0.0320062 0.710828)
(-0.0111575 0.031759 0.711113)
(-0.0183177 0.0314518 0.711556)
(-0.0248719 0.0314679 0.711888)
(-0.0277098 0.0338575 0.711869)
(0.023447 0.0271056 0.708892)
(0.020532 0.0247728 0.709281)
(0.0153885 0.024084 0.709391)
(0.00925552 0.0241153 0.709325)
(0.00312945 0.024147 0.70924)
(-0.00312926 0.0241471 0.70924)
(-0.00925526 0.0241156 0.709325)
(-0.0153885 0.0240842 0.709391)
(-0.0205325 0.0247728 0.709281)
(-0.023448 0.0271054 0.708893)
(0.00705308 0.00966346 0.52439)
(0.00538694 0.0117849 0.5422)
(0.00387851 0.013107 0.556948)
(0.00238187 0.0139124 0.567016)
(0.000806476 0.0143123 0.572109)
(-0.000806502 0.0143123 0.572109)
(-0.00238189 0.0139124 0.567016)
(-0.00387854 0.013107 0.556948)
(-0.00538691 0.0117849 0.5422)
(-0.00705302 0.00966348 0.52439)
(0.0213091 0.0278644 0.934091)
(0.0170388 0.0329417 0.946634)
(0.0124344 0.0364203 0.956236)
(0.00764383 0.0385958 0.96244)
(0.002585 0.0396779 0.965456)
(-0.00258506 0.0396779 0.965456)
(-0.00764389 0.0385958 0.96244)
(-0.0124345 0.0364203 0.956236)
(-0.0170388 0.0329417 0.946634)
(-0.021309 0.0278645 0.934091)
(0.0295425 0.0385006 1.08551)
(0.0235949 0.0441624 1.08699)
(0.017018 0.0481831 1.08814)
(0.0103547 0.0506335 1.08862)
(0.00348345 0.0518331 1.08878)
(-0.00348355 0.0518331 1.08878)
(-0.0103548 0.0506335 1.08862)
(-0.017018 0.0481831 1.08814)
(-0.0235949 0.0441624 1.08699)
(-0.0295424 0.0385007 1.08551)
(0.0320465 0.0421386 1.12176)
(0.0256409 0.0474434 1.11937)
(0.0183082 0.0513272 1.11677)
(0.0110495 0.0536168 1.11477)
(0.00370298 0.0547144 1.11369)
(-0.00370309 0.0547144 1.11369)
(-0.0110495 0.0536168 1.11477)
(-0.0183083 0.0513272 1.11677)
(-0.025641 0.0474434 1.11937)
(-0.0320464 0.0421387 1.12176)
(0.0321299 0.0429378 1.12415)
(0.0256607 0.0474352 1.11909)
(0.0181262 0.0508934 1.11465)
(0.0108435 0.052853 1.11155)
(0.00361983 0.0537664 1.10995)
(-0.00361996 0.0537664 1.10995)
(-0.0108436 0.052853 1.11155)
(-0.0181263 0.0508934 1.11465)
(-0.0256607 0.0474352 1.11909)
(-0.0321298 0.0429378 1.12415)
(0.0308428 0.0420716 1.1121)
(0.0246215 0.0458097 1.10731)
(0.0172234 0.0488178 1.10306)
(0.0102103 0.0504517 1.10012)
(0.00339532 0.0511836 1.09861)
(-0.00339545 0.0511836 1.09861)
(-0.0102104 0.0504517 1.10012)
(-0.0172235 0.0488178 1.10306)
(-0.0246216 0.0458097 1.10731)
(-0.0308427 0.0420717 1.1121)
(0.0291066 0.0407073 1.10312)
(0.0231203 0.0436633 1.09872)
(0.0159929 0.0461502 1.09472)
(0.00937802 0.0474415 1.09197)
(0.00310364 0.0479898 1.09057)
(-0.00310378 0.0479898 1.09057)
(-0.0093781 0.0474415 1.09197)
(-0.0159929 0.0461502 1.09472)
(-0.0231204 0.0436634 1.09872)
(-0.0291066 0.0407074 1.10312)
(0.0268208 0.0385491 1.09707)
(0.0210766 0.0407588 1.09306)
(0.0144311 0.0426899 1.0893)
(0.00837062 0.0437122 1.08673)
(0.00275638 0.044117 1.08544)
(-0.0027565 0.0441171 1.08544)
(-0.00837071 0.0437122 1.08673)
(-0.0144311 0.04269 1.0893)
(-0.0210767 0.0407589 1.09306)
(-0.026821 0.0385493 1.09707)
(0.0238872 0.0353016 1.09353)
(0.0187287 0.0367419 1.08986)
(0.0126607 0.0382822 1.08635)
(0.00731504 0.0391313 1.08394)
(0.00239365 0.0395118 1.08273)
(-0.0023937 0.0395119 1.08273)
(-0.00731513 0.0391315 1.08394)
(-0.0126608 0.0382825 1.08635)
(-0.0187291 0.0367423 1.08986)
(-0.0238874 0.0353018 1.09353)
(0.0213758 0.029643 1.0917)
(0.0163606 0.0308604 1.08845)
(0.011313 0.03212 1.08531)
(0.00646376 0.0331466 1.08316)
(0.00213658 0.0336082 1.08209)
(-0.0021364 0.0336083 1.08209)
(-0.00646364 0.0331469 1.08316)
(-0.0113131 0.0321204 1.08531)
(-0.0163609 0.0308606 1.08845)
(-0.0213768 0.0296432 1.0917)
(0.00124171 0.00144674 0.456125)
(0.00110711 0.00174901 0.473248)
(0.000828165 0.00206238 0.487817)
(0.000514409 0.00227867 0.497937)
(0.000174596 0.00238993 0.503106)
(-0.000174617 0.00238992 0.503106)
(-0.000514445 0.00227868 0.497937)
(-0.000828193 0.00206237 0.487817)
(-0.0011071 0.00174896 0.473248)
(-0.00124163 0.00144675 0.456125)
(0.00393944 0.00458453 0.830218)
(0.00361288 0.0055256 0.84538)
(0.00279792 0.00651199 0.857725)
(0.00177346 0.00722737 0.866061)
(0.000607772 0.00760366 0.870225)
(-0.00060784 0.00760366 0.870225)
(-0.0017735 0.00722734 0.866061)
(-0.00279793 0.00651192 0.857725)
(-0.00361291 0.00552561 0.84538)
(-0.00393937 0.00458454 0.830218)
(0.00744638 0.00885396 0.981892)
(0.0066877 0.0103544 0.987815)
(0.00512803 0.0119066 0.993198)
(0.00322565 0.0130226 0.9968)
(0.00110136 0.0136067 0.998589)
(-0.00110143 0.0136067 0.998589)
(-0.00322573 0.0130226 0.9968)
(-0.00512807 0.0119066 0.993198)
(-0.0066877 0.0103544 0.987815)
(-0.00744626 0.00885403 0.981892)
(0.0103373 0.0124808 1.02689)
(0.00917678 0.0141976 1.02934)
(0.00696608 0.0160294 1.03125)
(0.00434828 0.0173354 1.0325)
(0.0014794 0.0180155 1.0331)
(-0.00147951 0.0180155 1.0331)
(-0.00434837 0.0173354 1.0325)
(-0.00696612 0.0160294 1.03125)
(-0.00917679 0.0141976 1.02934)
(-0.0103372 0.0124809 1.02689)
(0.0120885 0.0147612 1.03728)
(0.0106819 0.0163723 1.0367)
(0.00805422 0.0182273 1.03647)
(0.00499898 0.0195518 1.0364)
(0.00169671 0.0202403 1.03637)
(-0.00169683 0.0202403 1.03637)
(-0.0049991 0.0195518 1.0364)
(-0.00805428 0.0182273 1.03647)
(-0.010682 0.0163723 1.0367)
(-0.0120884 0.0147612 1.03728)
(0.0128262 0.0157873 1.03034)
(0.0113356 0.0171056 1.02954)
(0.0085193 0.0188211 1.0291)
(0.00526645 0.0200636 1.02889)
(0.00178481 0.0207094 1.0288)
(-0.00178494 0.0207094 1.0288)
(-0.00526659 0.0200635 1.02889)
(-0.00851939 0.0188211 1.0291)
(-0.0113356 0.0171056 1.02954)
(-0.012826 0.0157874 1.03034)
(0.0128148 0.0158387 1.02373)
(0.0113486 0.0167665 1.02281)
(0.00852527 0.0182221 1.02223)
(0.0052547 0.0193109 1.02194)
(0.00177886 0.0198795 1.02181)
(-0.001779 0.0198795 1.02181)
(-0.00525484 0.0193108 1.02194)
(-0.00852537 0.0182221 1.02223)
(-0.0113487 0.0167666 1.02281)
(-0.0128147 0.0158388 1.02373)
(0.0123086 0.015183 1.01751)
(0.0108935 0.0156933 1.01659)
(0.00820179 0.0167793 1.01593)
(0.00504708 0.0176674 1.01558)
(0.00170711 0.0181316 1.01542)
(-0.00170724 0.0181316 1.01542)
(-0.00504719 0.0176675 1.01558)
(-0.00820185 0.0167795 1.01593)
(-0.0108937 0.0156935 1.01659)
(-0.0123087 0.0151832 1.01751)
(0.0114415 0.0140754 1.01178)
(0.0101957 0.0141389 1.01092)
(0.00763724 0.0148427 1.01022)
(0.00471079 0.0154612 1.00982)
(0.00158856 0.0158145 1.00965)
(-0.00158858 0.0158146 1.00965)
(-0.0047108 0.0154615 1.00982)
(-0.00763733 0.0148432 1.01022)
(-0.010196 0.0141392 1.01092)
(-0.0114419 0.0140755 1.01178)
(0.0108344 0.0125754 1.00694)
(0.00934716 0.0124236 1.00604)
(0.00707949 0.0127052 1.00523)
(0.00430558 0.0131203 1.00474)
(0.00146153 0.0133445 1.00451)
(-0.00146124 0.0133446 1.00451)
(-0.00430536 0.0131207 1.00474)
(-0.00707951 0.0127056 1.00523)
(-0.00934767 0.0124238 1.00604)
(-0.0108355 0.0125755 1.00694)
(0.000370909 0.000467157 0.454574)
(0.000311377 0.000579903 0.471047)
(0.000223269 0.000675483 0.48494)
(0.000135889 0.000736315 0.49456)
(4.5733e-05 0.00076674 0.49947)
(-4.57561e-05 0.000766726 0.49947)
(-0.000135922 0.000736304 0.49456)
(-0.000223294 0.000675462 0.48494)
(-0.00031138 0.000579857 0.471047)
(-0.000370852 0.000467179 0.454574)
(0.001437 0.00178562 0.830805)
(0.00124705 0.00215988 0.845141)
(0.000936744 0.00248748 0.856572)
(0.000585846 0.00271123 0.864241)
(0.000199773 0.00282734 0.868065)
(-0.000199842 0.00282733 0.868065)
(-0.000585872 0.00271121 0.864241)
(-0.000936754 0.00248746 0.856572)
(-0.00124707 0.00215984 0.845141)
(-0.00143695 0.00178564 0.830805)
(0.00296857 0.0036908 0.986582)
(0.00257143 0.00432853 0.991929)
(0.00193504 0.00490746 0.996587)
(0.00120758 0.00530742 0.999646)
(0.000411196 0.00551546 1.00116)
(-0.000411281 0.00551543 1.00116)
(-0.00120764 0.00530741 0.999646)
(-0.00193508 0.00490741 0.996587)
(-0.00257145 0.00432849 0.991929)
(-0.00296847 0.00369085 0.986582)
(0.00432556 0.00542704 1.03613)
(0.00374686 0.0062296 1.03832)
(0.0028126 0.00698972 1.03975)
(0.00174921 0.00751395 1.0406)
(0.000594684 0.00778575 1.041)
(-0.000594786 0.00778574 1.041)
(-0.00174927 0.00751395 1.0406)
(-0.00281266 0.00698972 1.03975)
(-0.00374691 0.00622959 1.03832)
(-0.00432546 0.00542707 1.03613)
(0.00534248 0.00677906 1.05138)
(0.00462706 0.0076209 1.05072)
(0.0034594 0.00846426 1.05016)
(0.00214227 0.00904387 1.04976)
(0.000727042 0.00934287 1.04956)
(-0.000727154 0.00934286 1.04956)
(-0.00214235 0.00904388 1.04976)
(-0.00345947 0.00846425 1.05016)
(-0.00462715 0.0076209 1.05072)
(-0.00534242 0.00677911 1.05138)
(0.00598497 0.00769129 1.04891)
(0.00518168 0.00846949 1.04814)
(0.00385821 0.00930882 1.04745)
(0.00237809 0.00988584 1.04697)
(0.000805619 0.0101815 1.04672)
(-0.000805731 0.0101815 1.04672)
(-0.00237817 0.00988585 1.04697)
(-0.00385828 0.00930881 1.04745)
(-0.00518178 0.00846953 1.04814)
(-0.00598497 0.00769139 1.04891)
(0.00629075 0.00819536 1.04644)
(0.00543799 0.00883816 1.04561)
(0.0040346 0.00960096 1.04483)
(0.00247456 0.0101298 1.04429)
(0.000836617 0.010399 1.044)
(-0.000836723 0.0103991 1.044)
(-0.00247466 0.0101298 1.04429)
(-0.00403465 0.009601 1.04483)
(-0.00543806 0.00883825 1.04561)
(-0.00629079 0.00819545 1.04644)
(0.00630967 0.00831913 1.04408)
(0.00542283 0.00878544 1.04325)
(0.00401476 0.0094067 1.04243)
(0.00245162 0.00986026 1.04185)
(0.000827096 0.0100876 1.04156)
(-0.000827181 0.0100876 1.04156)
(-0.0024517 0.00986033 1.04185)
(-0.00401482 0.00940686 1.04243)
(-0.00542291 0.0087856 1.04325)
(-0.00630986 0.00831931 1.04408)
(0.00605106 0.00806562 1.04194)
(0.00521616 0.0083176 1.04115)
(0.00382957 0.00879139 1.04034)
(0.00233854 0.00914536 1.03976)
(0.000785533 0.00933441 1.03946)
(-0.000785538 0.00933449 1.03946)
(-0.00233854 0.00914557 1.03976)
(-0.00382963 0.00879175 1.04034)
(-0.00521659 0.00831801 1.04115)
(-0.00605116 0.00806579 1.04194)
(0.00581875 0.00729988 1.04015)
(0.00489234 0.00745493 1.03939)
(0.0036333 0.00776931 1.0386)
(0.00218836 0.00807086 1.03804)
(0.00073955 0.00822321 1.03775)
(-0.000739349 0.00822329 1.03775)
(-0.00218817 0.00807109 1.03804)
(-0.00363343 0.00776963 1.0386)
(-0.00489272 0.007455 1.03939)
(-0.00581961 0.00729997 1.04015)
(0.000143532 0.000176179 0.452031)
(0.000122669 0.0002181 0.468444)
(8.7179e-05 0.000255642 0.482279)
(5.2298e-05 0.000279378 0.491855)
(1.74329e-05 0.000291048 0.49674)
(-1.7463e-05 0.000291039 0.49674)
(-5.23284e-05 0.000279347 0.491855)
(-8.71977e-05 0.000255607 0.482279)
(-0.000122666 0.000218074 0.468444)
(-0.000143478 0.000176206 0.452031)
(0.000566171 0.000693609 0.825941)
(0.000497092 0.0008403 0.840366)
(0.000372699 0.000973994 0.85187)
(0.00023196 0.00106551 0.859587)
(7.88451e-05 0.00111273 0.863434)
(-7.8899e-05 0.00111273 0.863434)
(-0.000231999 0.00106549 0.859587)
(-0.000372712 0.000973959 0.85187)
(-0.000497086 0.000840275 0.840366)
(-0.000566096 0.000693634 0.825941)
(0.00119011 0.00146728 0.981603)
(0.0010448 0.00173199 0.987176)
(0.000789809 0.00198002 0.992026)
(0.00049344 0.00215296 0.995218)
(0.000168042 0.00224296 0.996797)
(-0.000168123 0.00224295 0.996797)
(-0.000493516 0.00215293 0.995218)
(-0.000789847 0.00197997 0.992026)
(-0.0010448 0.00173196 0.987176)
(-0.00119 0.00146733 0.981603)
(0.00180961 0.00225507 1.03193)
(0.00158723 0.00260543 1.03448)
(0.00119921 0.00294706 1.0362)
(0.000748062 0.00318601 1.03728)
(0.00025463 0.00331045 1.03779)
(-0.000254717 0.00331044 1.03779)
(-0.000748152 0.003186 1.03728)
(-0.00119927 0.00294705 1.0362)
(-0.00158724 0.00260541 1.03448)
(-0.00180948 0.00225509 1.03193)
(0.00232107 0.00292615 1.04838)
(0.00203626 0.00331302 1.04816)
(0.00153508 0.00371139 1.04799)
(0.000954912 0.00399031 1.04787)
(0.000324724 0.00413526 1.04781)
(-0.000324829 0.00413524 1.04781)
(-0.000955022 0.00399032 1.04787)
(-0.00153518 0.0037114 1.04799)
(-0.00203631 0.003313 1.04816)
(-0.00232092 0.00292615 1.04838)
(0.00269268 0.00343556 1.04721)
(0.00236236 0.00381083 1.04693)
(0.00177631 0.00422619 1.04669)
(0.0011011 0.00451841 1.04652)
(0.000373974 0.0046697 1.04644)
(-0.000374075 0.0046697 1.04644)
(-0.0011012 0.00451845 1.04652)
(-0.00177644 0.00422623 1.04669)
(-0.00236248 0.00381083 1.04693)
(-0.00269256 0.00343554 1.04721)
(0.00291797 0.00376713 1.04596)
(0.00255739 0.0040914 1.04562)
(0.00191898 0.00448558 1.04533)
(0.00118494 0.00476654 1.04512)
(0.000401833 0.00491155 1.04502)
(-0.000401918 0.00491157 1.04502)
(-0.00118501 0.00476659 1.04512)
(-0.00191911 0.00448564 1.04533)
(-0.00255761 0.00409144 1.04562)
(-0.00291795 0.0037671 1.04596)
(0.00300739 0.00391708 1.04467)
(0.00262203 0.00416338 1.04431)
(0.00196617 0.00449829 1.04398)
(0.00120993 0.00474979 1.04375)
(0.000409607 0.00487822 1.04363)
(-0.000409654 0.00487827 1.04363)
(-0.00120997 0.00474988 1.04375)
(-0.00196627 0.00449839 1.04398)
(-0.00262236 0.00416347 1.04431)
(-0.00300763 0.0039171 1.04467)
(0.00295959 0.00387967 1.04342)
(0.00258666 0.00402308 1.04306)
(0.001926 0.00428555 1.04271)
(0.00118581 0.00448911 1.04246)
(0.000399883 0.00459885 1.04233)
(-0.000399835 0.00459893 1.04233)
(-0.00118582 0.00448931 1.04246)
(-0.00192608 0.00428585 1.04271)
(-0.0025871 0.00402332 1.04306)
(-0.00296021 0.00387982 1.04342)
(0.00291093 0.00359727 1.04231)
(0.00248704 0.00368365 1.04194)
(0.00186677 0.00386182 1.04156)
(0.00113508 0.00403112 1.0413)
(0.00038473 0.00411929 1.04117)
(-0.000384476 0.00411935 1.04117)
(-0.00113492 0.00403132 1.0413)
(-0.00186674 0.00386211 1.04156)
(-0.00248745 0.00368389 1.04194)
(-0.00291203 0.00359734 1.04231)
(6.1326e-05 7.41304e-05 0.451035)
(5.32138e-05 9.13933e-05 0.467405)
(3.81108e-05 0.000107299 0.481196)
(2.29001e-05 0.000117453 0.49074)
(7.62458e-06 0.000122452 0.495609)
(-7.65753e-06 0.000122446 0.495609)
(-2.29279e-05 0.000117433 0.49074)
(-3.81219e-05 0.000107275 0.481196)
(-5.32214e-05 9.13748e-05 0.467405)
(-6.12805e-05 7.41507e-05 0.451035)
(0.000243138 0.000295669 0.824093)
(0.000214941 0.000357349 0.838494)
(0.000161584 0.000414395 0.849968)
(0.00010059 0.00045371 0.857662)
(3.41739e-05 0.000474044 0.861498)
(-3.42154e-05 0.00047404 0.861498)
(-0.000100614 0.00045369 0.857662)
(-0.000161582 0.000414377 0.849968)
(-0.000214941 0.000357334 0.838494)
(-0.000243076 0.000295689 0.824093)
(0.000516002 0.000634243 0.979703)
(0.000455158 0.000748836 0.985299)
(0.00034491 0.00085701 0.990159)
(0.000215706 0.000932903 0.993355)
(7.34766e-05 0.000972528 0.994937)
(-7.35455e-05 0.000972521 0.994937)
(-0.000215763 0.000932873 0.993355)
(-0.000344926 0.000856981 0.990159)
(-0.000455163 0.000748824 0.985299)
(-0.000515927 0.000634305 0.979703)
(0.000798972 0.000994314 1.03038)
(0.00070392 0.00115078 1.03299)
(0.000533493 0.00130407 1.03477)
(0.000333414 0.001412 1.03588)
(0.000113576 0.00146844 1.03641)
(-0.000113658 0.00146843 1.03641)
(-0.000333475 0.00141197 1.03588)
(-0.000533512 0.00130406 1.03477)
(-0.000703924 0.00115079 1.03299)
(-0.000798895 0.000994388 1.03038)
(0.00104496 0.00131699 1.04737)
(0.000920967 0.0014955 1.04728)
(0.000696939 0.00167966 1.04719)
(0.000434634 0.0018095 1.04714)
(0.000147966 0.00187729 1.04711)
(-0.000148078 0.00187728 1.04711)
(-0.000434718 0.00180947 1.04714)
(-0.000696969 0.00167964 1.04719)
(-0.00092098 0.00149551 1.04728)
(-0.00104489 0.00131709 1.04737)
(0.00123638 0.00157828 1.04687)
(0.00108975 0.00175718 1.04673)
(0.00082295 0.00195476 1.04662)
(0.000511651 0.00209472 1.04654)
(0.000174018 0.00216757 1.0465)
(-0.000174143 0.00216756 1.0465)
(-0.000511746 0.00209471 1.04654)
(-0.000822978 0.00195475 1.04662)
(-0.00108976 0.0017572 1.04673)
(-0.00123633 0.0015784 1.04687)
(0.00136548 0.00176503 1.0463)
(0.00120203 0.00192484 1.04614)
(0.000906094 0.00211747 1.04599)
(0.000561328 0.00225563 1.04589)
(0.000190664 0.00232735 1.04584)
(-0.000190791 0.00232735 1.04584)
(-0.000561441 0.00225564 1.04589)
(-0.000906134 0.00211749 1.04599)
(-0.001202 0.00192492 1.04614)
(-0.00136543 0.00176512 1.0463)
(0.00143211 0.00186879 1.0457)
(0.00125357 0.001995 1.04552)
(0.000944446 0.00216336 1.04535)
(0.00058319 0.00229016 1.04523)
(0.00019778 0.00235528 1.04517)
(-0.000197889 0.0023553 1.04517)
(-0.000583307 0.00229024 1.04523)
(-0.000944511 0.00216351 1.04535)
(-0.00125357 0.00199517 1.04552)
(-0.00143214 0.00186895 1.0457)
(0.0014326 0.00188036 1.0451)
(0.00125511 0.00195952 1.04491)
(0.000939381 0.0020952 1.04473)
(0.000580315 0.00220092 1.0446)
(0.000196057 0.00225778 1.04453)
(-0.000196081 0.00225785 1.04453)
(-0.000580356 0.00220118 1.0446)
(-0.00093948 0.00209562 1.04473)
(-0.00125536 0.00195998 1.04491)
(-0.00143266 0.00188048 1.0451)
(0.00142611 0.00176754 1.04455)
(0.00122555 0.00181823 1.04436)
(0.000922095 0.00191534 1.04416)
(0.000563153 0.00200454 1.04402)
(0.000191067 0.00205143 1.04395)
(-0.000190832 0.00205152 1.04395)
(-0.000562951 0.00200481 1.04402)
(-0.000922186 0.00191573 1.04416)
(-0.0012259 0.00181847 1.04436)
(-0.00142688 0.00176766 1.04455)
(2.75659e-05 3.29745e-05 0.450605)
(2.42235e-05 4.05158e-05 0.466958)
(1.75411e-05 4.76039e-05 0.480732)
(1.06134e-05 5.21954e-05 0.490263)
(3.54023e-06 5.44759e-05 0.495125)
(-3.56976e-06 5.4471e-05 0.495125)
(-1.06393e-05 5.218e-05 0.490263)
(-1.75561e-05 4.75791e-05 0.480732)
(-2.42288e-05 4.04916e-05 0.466958)
(-2.75254e-05 3.29914e-05 0.450605)
(0.000109176 0.000132104 0.823303)
(9.70715e-05 0.000159397 0.837695)
(7.3279e-05 0.00018487 0.849157)
(4.57265e-05 0.000202534 0.856842)
(1.55446e-05 0.000211702 0.860673)
(-1.55775e-05 0.000211694 0.860673)
(-4.57459e-05 0.000202511 0.856842)
(-7.32815e-05 0.000184845 0.849157)
(-9.70654e-05 0.000159377 0.837695)
(-0.000109102 0.000132124 0.823303)
(0.000232371 0.000284964 0.978865)
(0.000205706 0.000336377 0.984472)
(0.000156263 0.000385124 0.989337)
(9.78643e-05 0.000419447 0.992535)
(3.3346e-05 0.000437415 0.994118)
(-3.34079e-05 0.000437409 0.994118)
(-9.79141e-05 0.000419426 0.992535)
(-0.000156288 0.000385102 0.989337)
(-0.000205719 0.000336369 0.984472)
(-0.000232284 0.000285004 0.978865)
(0.000362677 0.00045079 1.02967)
(0.000320545 0.000522103 1.03231)
(0.000243509 0.000592196 1.03411)
(0.000152408 0.000641716 1.03524)
(5.19447e-05 0.000667682 1.03577)
(-5.20133e-05 0.000667683 1.03577)
(-0.000152465 0.000641716 1.03524)
(-0.000243543 0.000592204 1.03411)
(-0.000320572 0.00052211 1.03231)
(-0.000362588 0.000450815 1.02967)
(0.000479118 0.000603524 1.04688)
(0.000423585 0.00068636 1.04684)
(0.00032137 0.000772008 1.0468)
(0.000200765 0.000832645 1.04677)
(6.84023e-05 0.000864402 1.04676)
(-6.84816e-05 0.00086441 1.04676)
(-0.000200841 0.000832674 1.04677)
(-0.000321436 0.000772055 1.0468)
(-0.000423651 0.000686368 1.04684)
(-0.000479032 0.000603511 1.04688)
(0.000573274 0.000731771 1.04665)
(0.000506869 0.000816447 1.04659)
(0.000383897 0.000910005 1.04654)
(0.000239179 0.00097662 1.0465)
(8.14348e-05 0.0010114 1.04648)
(-8.14952e-05 0.00101142 1.04648)
(-0.00023924 0.000976685 1.0465)
(-0.000383986 0.000910102 1.04654)
(-0.000506998 0.000816449 1.04659)
(-0.000573207 0.00073169 1.04665)
(0.000640407 0.000828111 1.04639)
(0.000565486 0.000905371 1.04631)
(0.000427708 0.00099827 1.04624)
(0.000265607 0.00106528 1.0462)
(9.03334e-05 0.00110018 1.04617)
(-9.03549e-05 0.0011002 1.04617)
(-0.000265627 0.00106538 1.0462)
(-0.00042781 0.000998396 1.04624)
(-0.000565726 0.000905348 1.04631)
(-0.000640418 0.000827943 1.04639)
(0.000679023 0.000886776 1.0461)
(0.000596222 0.000949304 1.04602)
(0.000450938 0.00103213 1.04594)
(0.000279177 0.00109473 1.04588)
(9.48165e-05 0.00112701 1.04585)
(-9.47754e-05 0.00112706 1.04585)
(-0.000279136 0.00109485 1.04588)
(-0.000451035 0.00103223 1.04594)
(-0.000596617 0.000949222 1.04602)
(-0.000679283 0.000886568 1.0461)
(0.000686723 0.000901445 1.04581)
(0.000602882 0.000942569 1.04573)
(0.000453327 0.0010104 1.04564)
(0.00028074 0.00106367 1.04557)
(9.50097e-05 0.00109228 1.04554)
(-9.48787e-05 0.00109235 1.04554)
(-0.000280657 0.00106379 1.04557)
(-0.000453419 0.00101046 1.04564)
(-0.000603509 0.000942443 1.04573)
(-0.000687279 0.000901274 1.04581)
(0.000689027 0.000855419 1.04555)
(0.000595336 0.000882649 1.04545)
(0.000448823 0.000932847 1.04535)
(0.000275063 0.000978104 1.04528)
(9.34209e-05 0.00100212 1.04525)
(-9.31873e-05 0.00100214 1.04525)
(-0.000274941 0.000978136 1.04528)
(-0.000448961 0.000932806 1.04535)
(-0.000595944 0.000882446 1.04545)
(-0.000690038 0.000855353 1.04555)
(1.26966e-05 1.50482e-05 0.450408)
(1.12821e-05 1.84343e-05 0.466754)
(8.2588e-06 2.16717e-05 0.480522)
(5.03944e-06 2.38045e-05 0.490047)
(1.68611e-06 2.48729e-05 0.494906)
(-1.70761e-06 2.48689e-05 0.494906)
(-5.05757e-06 2.37915e-05 0.490047)
(-8.27098e-06 2.16565e-05 0.480522)
(-1.12867e-05 1.8419e-05 0.466754)
(-1.26657e-05 1.50658e-05 0.450408)
(5.0076e-05 6.03211e-05 0.822943)
(4.47635e-05 7.26936e-05 0.837331)
(3.39421e-05 8.4335e-05 0.848789)
(2.12459e-05 9.24592e-05 0.85647)
(7.23029e-06 9.66902e-05 0.860299)
(-7.25298e-06 9.66824e-05 0.860299)
(-2.12534e-05 9.24422e-05 0.85647)
(-3.39332e-05 8.43228e-05 0.848789)
(-4.47484e-05 7.26937e-05 0.837331)
(-5.00137e-05 6.03561e-05 0.822943)
(0.000106728 0.000130591 0.978478)
(9.47755e-05 0.00015409 0.98409)
(7.21697e-05 0.000176469 0.988957)
(4.52713e-05 0.000192277 0.992157)
(1.54301e-05 0.00020057 0.99374)
(-1.54786e-05 0.000200562 0.99374)
(-4.53015e-05 0.000192259 0.992157)
(-7.21762e-05 0.000176454 0.988957)
(-9.47736e-05 0.000154095 0.98409)
(-0.000106656 0.000130639 0.978478)
(0.000167256 0.000207597 1.02933)
(0.00014821 0.000240506 1.03199)
(0.000112819 0.000272952 1.0338)
(7.07036e-05 0.000295927 1.03493)
(2.41042e-05 0.000307993 1.03547)
(-2.41601e-05 0.000307986 1.03547)
(-7.07379e-05 0.000295913 1.03493)
(-0.000112823 0.000272944 1.0338)
(-0.000148211 0.000240525 1.03199)
(-0.000167183 0.000207652 1.02933)
(0.000222174 0.00027962 1.04664)
(0.000196922 0.000318288 1.04662)
(0.000149701 0.000358355 1.0466)
(9.36351e-05 0.000386774 1.04659)
(3.19073e-05 0.000401673 1.04658)
(-3.19846e-05 0.000401667 1.04658)
(-9.36871e-05 0.000386756 1.04659)
(-0.000149712 0.000358346 1.0466)
(-0.000196934 0.000318312 1.04662)
(-0.000222112 0.000279683 1.04664)
(0.000267574 0.000341364 1.04653)
(0.000237226 0.000381414 1.04651)
(0.000180046 0.0004257 1.04648)
(0.000112307 0.000457279 1.04646)
(3.82423e-05 0.000473785 1.04645)
(-3.83285e-05 0.000473783 1.04645)
(-0.000112366 0.000457265 1.04646)
(-0.000180051 0.000425693 1.04648)
(-0.00023723 0.00038144 1.04651)
(-0.00026753 0.00034144 1.04653)
(0.000301051 0.000389148 1.04641)
(0.000266595 0.00042619 1.04638)
(0.000202056 0.000470698 1.04634)
(0.00012562 0.000502853 1.04632)
(4.27298e-05 0.000519622 1.04631)
(-4.28204e-05 0.000519628 1.04631)
(-0.000125694 0.000502854 1.04632)
(-0.000202065 0.000470707 1.04634)
(-0.000266574 0.000426242 1.04638)
(-0.000301005 0.000389214 1.04641)
(0.000321519 0.000419716 1.04628)
(0.000283122 0.000450159 1.04624)
(0.000214572 0.000490393 1.0462)
(0.000132997 0.000520824 1.04617)
(4.51827e-05 0.000536558 1.04616)
(-4.52606e-05 0.000536578 1.04616)
(-0.000133083 0.000520881 1.04617)
(-0.000214601 0.0004905 1.0462)
(-0.000283104 0.000450315 1.04624)
(-0.000321538 0.000419842 1.04628)
(0.000327783 0.000429424 1.04614)
(0.000288116 0.000450098 1.0461)
(0.000217224 0.000483379 1.04605)
(0.000134687 0.000509757 1.04602)
(4.56168e-05 0.000523888 1.04601)
(-4.5624e-05 0.00052395 1.04601)
(-0.000134731 0.000509959 1.04602)
(-0.000217277 0.000483763 1.04605)
(-0.000288258 0.000450516 1.0461)
(-0.000327868 0.000429677 1.04614)
(0.000330715 0.000410496 1.04601)
(0.000286808 0.000424093 1.04596)
(0.000216289 0.000449293 1.04591)
(0.000132925 0.000471746 1.04588)
(4.51791e-05 0.000483777 1.04586)
(-4.49744e-05 0.00048385 1.04586)
(-0.000132746 0.000472 1.04588)
(-0.000216297 0.000449671 1.04591)
(-0.00028697 0.000424487 1.04596)
(-0.000331305 0.000410673 1.04601)
(5.92462e-06 6.97274e-06 0.450318)
(5.31048e-06 8.51643e-06 0.46666)
(3.92685e-06 1.00175e-05 0.480425)
(2.41379e-06 1.102e-05 0.489948)
(8.08483e-07 1.15265e-05 0.494806)
(-8.27109e-07 1.15223e-05 0.494806)
(-2.42966e-06 1.10083e-05 0.489948)
(-3.93816e-06 1.00035e-05 0.480425)
(-5.31977e-06 8.49997e-06 0.46666)
(-5.8972e-06 6.98057e-06 0.450318)
(2.32691e-05 2.79288e-05 0.822777)
(2.08937e-05 3.36286e-05 0.837164)
(1.5905e-05 3.90185e-05 0.84862)
(9.98342e-06 4.27998e-05 0.856299)
(3.40302e-06 4.47756e-05 0.860127)
(-3.41169e-06 4.47701e-05 0.860127)
(-9.98204e-06 4.27891e-05 0.856299)
(-1.5891e-05 3.90135e-05 0.84862)
(-2.08825e-05 3.36306e-05 0.837164)
(-2.32163e-05 2.79569e-05 0.822777)
(4.96309e-05 6.06202e-05 0.978298)
(4.41862e-05 7.15078e-05 0.983913)
(3.37104e-05 8.18882e-05 0.988781)
(2.11742e-05 8.92412e-05 0.991981)
(7.21961e-06 9.31045e-05 0.993565)
(-7.24967e-06 9.31012e-05 0.993565)
(-2.11929e-05 8.92335e-05 0.991981)
(-3.37137e-05 8.18869e-05 0.988781)
(-4.41914e-05 7.15119e-05 0.983913)
(-4.95781e-05 6.06598e-05 0.978298)
(7.79505e-05 9.66364e-05 1.02917)
(6.92134e-05 0.000111968 1.03184)
(5.27515e-05 0.000127089 1.03366)
(3.30906e-05 0.000137811 1.03479)
(1.12847e-05 0.000143452 1.03533)
(-1.13181e-05 0.000143452 1.03533)
(-3.31123e-05 0.000137815 1.03479)
(-5.27565e-05 0.000127102 1.03366)
(-6.92244e-05 0.000111986 1.03184)
(-7.78951e-05 9.66776e-05 1.02917)
(0.000103872 0.000130629 1.04652)
(9.22172e-05 0.000148752 1.04651)
(7.01746e-05 0.000167541 1.04651)
(4.39297e-05 0.000180879 1.0465)
(1.4975e-05 0.000187886 1.0465)
(-1.50196e-05 0.00018789 1.0465)
(-4.39647e-05 0.000180889 1.0465)
(-7.0193e-05 0.000167562 1.04651)
(-9.22463e-05 0.000148776 1.04651)
(-0.00010382 0.000130674 1.04652)
(0.000125577 0.000160118 1.04647)
(0.000111493 0.000179025 1.04646)
(8.47088e-05 0.000199946 1.04645)
(5.28901e-05 0.000214884 1.04644)
(1.80223e-05 0.000222707 1.04644)
(-1.80601e-05 0.00022271 1.04644)
(-5.29191e-05 0.0002149 1.04644)
(-8.47265e-05 0.000199983 1.04645)
(-0.000111535 0.000179061 1.04646)
(-0.000125534 0.000160183 1.04647)
(0.000141872 0.0001833 1.04642)
(0.000125808 0.000200975 1.0464)
(9.54787e-05 0.000222168 1.04639)
(5.94295e-05 0.000237516 1.04637)
(2.0231e-05 0.000245523 1.04637)
(-2.02608e-05 0.000245523 1.04637)
(-5.9442e-05 0.000237528 1.04637)
(-9.54851e-05 0.000222212 1.04639)
(-0.000125855 0.000201015 1.0464)
(-0.000141859 0.000183404 1.04642)
(0.000152153 0.000198583 1.04635)
(0.000134194 0.000213243 1.04634)
(0.000101872 0.00023262 1.04632)
(6.32225e-05 0.000247261 1.0463)
(2.14882e-05 0.00025483 1.0463)
(-2.15134e-05 0.000254832 1.0463)
(-6.32124e-05 0.000247283 1.0463)
(-0.000101862 0.000232655 1.04632)
(-0.000134244 0.000213333 1.04634)
(-0.000152248 0.000198727 1.04635)
(0.000155834 0.000204017 1.04629)
(0.000137097 0.000214205 1.04627)
(0.000103641 0.000230323 1.04625)
(6.43068e-05 0.00024316 1.04623)
(2.17812e-05 0.000250006 1.04622)
(-2.17858e-05 0.000250042 1.04622)