/*--------------------------------*- C++ -*----------------------------------*\
| =========                 |                                                 |
| \\      /  F ield         | OpenFOAM: The Open Source CFD Toolbox           |
|  \\    /   O peration     | Version:  2106                                  |
|   \\  /    A nd           | Website:  www.openfoam.com                      |
|    \\/     M anipulation  |                                                 |
\*---------------------------------------------------------------------------*/
FoamFile
{
    version     2.0;
    format      ascii;
    arch        "LSB;label=32;scalar=64";
    class       volVectorField;
    location    "0.98";
    object      U;
}
// * * * * * * * * * * * * * * * * * * * * * * * * * * * * * * * * * * * * * //

dimensions      [0 1 -1 0 0 0 0];

internalField   nonuniform List<vector> 
10000
(
(0.062564 0.0737216 0.345103)
(0.0533597 0.0838419 0.359583)
(0.0398499 0.0929934 0.370946)
(0.0247214 0.0993758 0.378795)
(0.00837798 0.102676 0.382783)
(-0.00837797 0.102676 0.382783)
(-0.0247214 0.0993758 0.378795)
(-0.0398499 0.0929934 0.370946)
(-0.0533597 0.0838419 0.359583)
(-0.062564 0.0737216 0.345103)
(0.172066 0.204138 0.72784)
(0.145247 0.231381 0.747488)
(0.108435 0.255343 0.762127)
(0.0670895 0.271931 0.772024)
(0.0227096 0.280486 0.776973)
(-0.0227096 0.280486 0.776973)
(-0.0670895 0.271931 0.772024)
(-0.108435 0.255343 0.762127)
(-0.145247 0.231381 0.747488)
(-0.172066 0.204138 0.72784)
(0.222647 0.264372 0.923747)
(0.185839 0.296084 0.939573)
(0.137855 0.323775 0.950636)
(0.0848697 0.34272 0.957938)
(0.0286576 0.352427 0.96152)
(-0.0286576 0.352427 0.96152)
(-0.0848697 0.34272 0.957938)
(-0.137855 0.323775 0.950636)
(-0.185839 0.296084 0.939573)
(-0.222647 0.264372 0.923747)
(0.237675 0.281762 1.02286)
(0.196439 0.311646 1.03336)
(0.144819 0.337793 1.04003)
(0.0887444 0.355481 1.04429)
(0.0298981 0.364486 1.04632)
(-0.0298981 0.364486 1.04632)
(-0.0887444 0.355481 1.04429)
(-0.144819 0.337793 1.04003)
(-0.196439 0.311646 1.03336)
(-0.237675 0.281762 1.02286)
(0.235746 0.278979 1.07121)
(0.193246 0.304985 1.07716)
(0.141716 0.327876 1.08029)
(0.0864947 0.343228 1.08217)
(0.0290841 0.350996 1.08301)
(-0.0290841 0.350996 1.08301)
(-0.0864948 0.343228 1.08217)
(-0.141716 0.327876 1.08029)
(-0.193246 0.304985 1.07716)
(-0.235746 0.278979 1.07121)
(0.224749 0.26548 1.09229)
(0.182838 0.286895 1.09487)
(0.133449 0.305897 1.09552)
(0.0811488 0.318567 1.09576)
(0.0272386 0.324941 1.09581)
(-0.0272386 0.324941 1.09581)
(-0.0811488 0.318567 1.09576)
(-0.133449 0.305897 1.09552)
(-0.182838 0.286895 1.09487)
(-0.224749 0.26548 1.09229)
(0.208423 0.245567 1.0989)
(0.168274 0.26215 1.09917)
(0.122268 0.277012 1.09826)
(0.0740898 0.286903 1.0975)
(0.0248275 0.291857 1.09707)
(-0.0248275 0.291857 1.09707)
(-0.0740898 0.286903 1.0975)
(-0.122268 0.277012 1.09826)
(-0.168274 0.26215 1.09917)
(-0.208423 0.245567 1.0989)
(0.189096 0.221961 1.09821)
(0.151495 0.233757 1.09703)
(0.109613 0.244466 1.09523)
(0.0662051 0.251628 1.09392)
(0.0221503 0.255215 1.09324)
(-0.0221503 0.255215 1.09324)
(-0.0662051 0.251628 1.09392)
(-0.109613 0.244466 1.09523)
(-0.151495 0.233757 1.09703)
(-0.189096 0.221961 1.09821)
(0.168303 0.196451 1.09423)
(0.133874 0.203645 1.09216)
(0.0964711 0.210326 1.08995)
(0.0580856 0.214925 1.0884)
(0.0194042 0.217248 1.08762)
(-0.0194042 0.217248 1.08762)
(-0.0580856 0.214925 1.0884)
(-0.0964712 0.210326 1.08995)
(-0.133874 0.203645 1.09216)
(-0.168303 0.196451 1.09423)
(0.147203 0.170687 1.08918)
(0.11661 0.17179 1.08666)
(0.0834492 0.175072 1.0843)
(0.0500598 0.177463 1.08271)
(0.0166934 0.178693 1.08191)
(-0.0166935 0.178693 1.08191)
(-0.0500598 0.177463 1.08271)
(-0.0834492 0.175072 1.0843)
(-0.11661 0.17179 1.08666)
(-0.147203 0.170687 1.08918)
(0.0111959 0.0143014 0.26652)
(0.00940613 0.0175922 0.278782)
(0.00710244 0.0202358 0.288823)
(0.00449608 0.0220481 0.295812)
(0.00153834 0.0229924 0.29939)
(-0.00153834 0.0229924 0.29939)
(-0.00449608 0.0220481 0.295812)
(-0.00710245 0.0202358 0.288823)
(-0.00940613 0.0175922 0.278782)
(-0.0111959 0.0143014 0.26652)
(0.0544221 0.065848 0.629501)
(0.0467321 0.079224 0.651445)
(0.0357655 0.0906855 0.669043)
(0.0226112 0.0988069 0.681145)
(0.00773777 0.10307 0.687289)
(-0.00773777 0.10307 0.687289)
(-0.0226112 0.0988069 0.681145)
(-0.0357655 0.0906855 0.669043)
(-0.0467322 0.079224 0.651445)
(-0.0544221 0.065848 0.629501)
(0.0977991 0.116814 0.876452)
(0.0834409 0.138156 0.900273)
(0.063524 0.156471 0.918958)
(0.0399199 0.169397 0.931652)
(0.0136205 0.176148 0.938045)
(-0.0136205 0.176148 0.938045)
(-0.0399199 0.169397 0.931652)
(-0.063524 0.156471 0.918958)
(-0.0834409 0.138156 0.900273)
(-0.0977991 0.116814 0.876452)
(0.133895 0.158751 1.04421)
(0.113268 0.18489 1.06621)
(0.0856782 0.207216 1.08304)
(0.0535372 0.22286 1.09434)
(0.0182149 0.230986 1.09999)
(-0.0182149 0.230986 1.09999)
(-0.0535373 0.22286 1.09434)
(-0.0856782 0.207216 1.08304)
(-0.113268 0.18489 1.06621)
(-0.133895 0.158751 1.04421)
(0.159746 0.188325 1.15725)
(0.133983 0.216204 1.17587)
(0.100713 0.239857 1.18974)
(0.0626084 0.256312 1.19893)
(0.0212465 0.264811 1.20348)
(-0.0212465 0.264811 1.20348)
(-0.0626084 0.256312 1.19893)
(-0.100713 0.239857 1.18974)
(-0.133983 0.216204 1.17587)
(-0.159746 0.188325 1.15725)
(0.175396 0.205706 1.23231)
(0.145866 0.232838 1.24713)
(0.108986 0.255658 1.25785)
(0.0674283 0.271427 1.26485)
(0.0228278 0.279529 1.26829)
(-0.0228279 0.279529 1.26829)
(-0.0674284 0.271427 1.26485)
(-0.108986 0.255658 1.25785)
(-0.145867 0.232838 1.24713)
(-0.175396 0.205706 1.23231)
(0.181902 0.212236 1.2812)
(0.149987 0.236721 1.29243)
(0.111409 0.257073 1.30029)
(0.0686169 0.271052 1.30533)
(0.0231782 0.278201 1.30778)
(-0.0231782 0.278201 1.30778)
(-0.068617 0.271052 1.30533)
(-0.111409 0.257073 1.30029)
(-0.149987 0.236721 1.29243)
(-0.181902 0.212236 1.2812)
(0.180602 0.209545 1.31226)
(0.147628 0.230001 1.3204)
(0.109036 0.246729 1.32588)
(0.0668695 0.258165 1.32933)
(0.02254 0.263995 1.33099)
(-0.0225401 0.263995 1.33099)
(-0.0668696 0.258165 1.32933)
(-0.109036 0.246729 1.32588)
(-0.147628 0.230001 1.3204)
(-0.180602 0.209545 1.31226)
(0.172955 0.199303 1.33133)
(0.140207 0.214797 1.33699)
(0.102969 0.227109 1.34064)
(0.0628794 0.235544 1.34287)
(0.0211501 0.23984 1.34391)
(-0.0211502 0.23984 1.34391)
(-0.0628794 0.235544 1.34287)
(-0.102969 0.227109 1.34064)
(-0.140207 0.214797 1.33699)
(-0.172955 0.199303 1.33133)
(0.160526 0.184319 1.34252)
(0.129268 0.192257 1.34636)
(0.0941582 0.199803 1.34864)
(0.0572095 0.205008 1.34996)
(0.0191958 0.207656 1.35056)
(-0.0191959 0.207656 1.35056)
(-0.0572096 0.205008 1.34996)
(-0.0941583 0.199803 1.34864)
(-0.129268 0.192257 1.34636)
(-0.160526 0.184319 1.34252)
(0.00112224 0.00125329 0.157621)
(0.00113339 0.00160045 0.165919)
(0.000883511 0.00200868 0.172849)
(0.000591418 0.00231107 0.177754)
(0.000206089 0.00247863 0.180294)
(-0.000206092 0.00247863 0.180294)
(-0.000591421 0.00231107 0.177754)
(-0.000883514 0.00200868 0.172849)
(-0.00113339 0.00160044 0.165919)
(-0.00112224 0.00125328 0.157621)
(0.018023 0.0209135 0.441585)
(0.0162082 0.0255145 0.461784)
(0.0126853 0.0298441 0.478374)
(0.00814727 0.033042 0.490018)
(0.0028074 0.0347599 0.496011)
(-0.00280741 0.0347599 0.496011)
(-0.00814729 0.033042 0.490018)
(-0.0126853 0.0298441 0.478374)
(-0.0162082 0.0255145 0.461784)
(-0.018023 0.0209135 0.441585)
(0.0410852 0.0478225 0.685131)
(0.036287 0.0574553 0.712705)
(0.0281913 0.0662417 0.734989)
(0.0179583 0.0726665 0.750499)
(0.00616593 0.0760881 0.758443)
(-0.00616595 0.0760881 0.758443)
(-0.0179583 0.0726665 0.750499)
(-0.0281913 0.0662417 0.734989)
(-0.036287 0.0574553 0.712705)
(-0.0410853 0.0478225 0.685131)
(0.0659704 0.0768494 0.887732)
(0.0575028 0.0910353 0.91891)
(0.0443444 0.103727 0.943688)
(0.0280674 0.112911 0.960789)
(0.00960771 0.117766 0.969503)
(-0.00960776 0.117766 0.969503)
(-0.0280675 0.112911 0.960789)
(-0.0443444 0.103727 0.943688)
(-0.0575028 0.0910353 0.91891)
(-0.0659704 0.0768494 0.887732)
(0.0882052 0.102634 1.05282)
(0.076012 0.119905 1.08482)
(0.0582028 0.135131 1.10982)
(0.0366323 0.14604 1.12693)
(0.0125055 0.151771 1.1356)
(-0.0125056 0.151771 1.1356)
(-0.0366323 0.14604 1.12693)
(-0.0582029 0.13513 1.10982)
(-0.076012 0.119905 1.08482)
(-0.0882052 0.102634 1.05282)
(0.105546 0.122494 1.1853)
(0.0900028 0.1411 1.21624)
(0.0684447 0.157276 1.24)
(0.0428544 0.168766 1.25613)
(0.0145925 0.174766 1.26426)
(-0.0145926 0.174766 1.26426)
(-0.0428545 0.168766 1.25613)
(-0.0684447 0.157276 1.24)
(-0.0900028 0.1411 1.21624)
(-0.105546 0.122494 1.1853)
(0.117141 0.135462 1.2903)
(0.098877 0.153713 1.31903)
(0.0746894 0.169348 1.34073)
(0.0465317 0.180363 1.35535)
(0.015806 0.186083 1.36269)
(-0.0158061 0.186083 1.36269)
(-0.0465318 0.180363 1.35535)
(-0.0746895 0.169348 1.34073)
(-0.0988771 0.153713 1.31903)
(-0.117141 0.135462 1.2903)
(0.122864 0.141423 1.3726)
(0.102666 0.157844 1.39852)
(0.0770376 0.171662 1.41782)
(0.0477615 0.181324 1.43072)
(0.0161848 0.186318 1.43716)
(-0.0161849 0.186318 1.43716)
(-0.0477616 0.181324 1.43072)
(-0.0770376 0.171662 1.41782)
(-0.102666 0.157844 1.39852)
(-0.122864 0.141423 1.3726)
(0.123114 0.140815 1.43629)
(0.101861 0.154225 1.4593)
(0.0759036 0.16518 1.47617)
(0.0468165 0.172808 1.48733)
(0.0158239 0.176734 1.49288)
(-0.0158241 0.176734 1.49288)
(-0.0468166 0.172808 1.48733)
(-0.0759037 0.16518 1.47617)
(-0.101861 0.154225 1.4593)
(-0.123114 0.140815 1.43629)
(0.118707 0.135452 1.48472)
(0.0972566 0.143514 1.50532)
(0.0717586 0.150805 1.51985)
(0.0439853 0.155856 1.52933)
(0.0148217 0.158441 1.534)
(-0.0148219 0.158441 1.534)
(-0.0439854 0.155856 1.52933)
(-0.0717587 0.150805 1.51985)
(-0.0972567 0.143514 1.50532)
(-0.118707 0.135452 1.48472)
(0.000713595 0.000937143 0.13787)
(0.000557816 0.00117504 0.144676)
(0.000382049 0.00134376 0.150217)
(0.000236953 0.00144364 0.154107)
(7.93535e-05 0.00149364 0.156114)
(-7.93575e-05 0.00149364 0.156114)
(-0.000236957 0.00144364 0.154107)
(-0.000382052 0.00134376 0.150217)
(-0.00055782 0.00117504 0.144676)
(-0.000713598 0.000937141 0.13787)
(0.00704564 0.00842431 0.39533)
(0.00611845 0.0103837 0.413392)
(0.00470518 0.0120793 0.428014)
(0.00300198 0.0132966 0.438248)
(0.00103101 0.0139443 0.443515)
(-0.00103102 0.0139443 0.443515)
(-0.003002 0.0132966 0.438248)
(-0.00470519 0.0120793 0.428014)
(-0.00611846 0.0103837 0.413392)
(-0.00704565 0.00842431 0.39533)
(0.0172811 0.0204041 0.628419)
(0.0150759 0.0248436 0.655084)
(0.0116681 0.0287399 0.676504)
(0.00743375 0.0315689 0.691434)
(0.00255294 0.0330738 0.699097)
(-0.00255297 0.0330738 0.699097)
(-0.00743378 0.0315689 0.691434)
(-0.0116681 0.0287399 0.676504)
(-0.0150759 0.0248436 0.655084)
(-0.0172812 0.0204041 0.628419)
(0.0296525 0.0348131 0.835228)
(0.0257844 0.0418811 0.867815)
(0.0199301 0.0480838 0.893748)
(0.0126572 0.0525828 0.911734)
(0.00434073 0.0549689 0.920937)
(-0.00434077 0.0549689 0.920937)
(-0.0126573 0.0525828 0.911734)
(-0.0199301 0.0480838 0.893748)
(-0.0257845 0.0418811 0.867815)
(-0.0296525 0.0348131 0.835228)
(0.0421076 0.0492153 1.01572)
(0.0363893 0.0584608 1.05181)
(0.0280144 0.0665285 1.08023)
(0.0177211 0.0723511 1.09984)
(0.00606581 0.0754261 1.10984)
(-0.00606588 0.0754261 1.10984)
(-0.0177212 0.0723511 1.09984)
(-0.0280145 0.0665285 1.08023)
(-0.0363894 0.0584608 1.05181)
(-0.0421077 0.0492153 1.01572)
(0.0531542 0.0618516 1.17105)
(0.0455876 0.0724758 1.20862)
(0.0349109 0.0816601 1.23788)
(0.0219872 0.0882449 1.25795)
(0.00750994 0.0917056 1.26816)
(-0.00751002 0.0917056 1.26816)
(-0.0219873 0.0882449 1.25795)
(-0.034911 0.0816601 1.23788)
(-0.0455877 0.0724758 1.20862)
(-0.0531543 0.0618516 1.17105)
(0.0618053 0.0715803 1.30303)
(0.0525555 0.0826286 1.34048)
(0.0400064 0.0920584 1.36931)
(0.0250797 0.0987691 1.38899)
(0.00854656 0.102278 1.39896)
(-0.00854667 0.102278 1.39896)
(-0.0250798 0.0987691 1.38899)
(-0.0400064 0.0920584 1.36931)
(-0.0525556 0.0826286 1.34048)
(-0.0618054 0.0715803 1.30303)
(0.0674679 0.0777178 1.41369)
(0.0568445 0.0882148 1.44983)
(0.0429934 0.0970275 1.47737)
(0.0268218 0.103248 1.49606)
(0.00911807 0.106484 1.50549)
(-0.00911818 0.106484 1.50549)
(-0.026822 0.103248 1.49606)
(-0.0429935 0.0970275 1.47737)
(-0.0568446 0.0882147 1.44983)
(-0.067468 0.0777178 1.41369)
(0.0699454 0.0799994 1.50499)
(0.0583701 0.0890643 1.53917)
(0.0438335 0.0964613 1.56489)
(0.0271983 0.101645 1.5822)
(0.00922087 0.104327 1.59088)
(-0.009221 0.104327 1.59088)
(-0.0271985 0.101645 1.5822)
(-0.0438336 0.0964613 1.56489)
(-0.0583703 0.0890643 1.53917)
(-0.0699455 0.0799994 1.50499)
(0.0694179 0.0792142 1.57863)
(0.0573219 0.0852397 1.6111)
(0.0426081 0.0904766 1.63464)
(0.0262621 0.0941118 1.65025)
(0.00887394 0.0959777 1.65803)
(-0.00887407 0.0959777 1.65803)
(-0.0262622 0.0941118 1.65025)
(-0.0426082 0.0904766 1.63464)
(-0.057322 0.0852397 1.6111)
(-0.069418 0.0792142 1.57863)
(0.000130616 0.000142862 0.126935)
(0.000120997 0.000187241 0.133275)
(8.94083e-05 0.000232707 0.138428)
(6.11672e-05 0.000264575 0.142052)
(2.11284e-05 0.000282645 0.143923)
(-2.11323e-05 0.000282644 0.143923)
(-6.11709e-05 0.000264574 0.142052)
(-8.94119e-05 0.000232705 0.138428)
(-0.000121 0.000187239 0.133275)
(-0.000130619 0.00014286 0.126935)
(0.00251475 0.00290878 0.368108)
(0.00224936 0.00360604 0.385352)
(0.00176189 0.00424822 0.399321)
(0.00113875 0.00472603 0.409124)
(0.000393217 0.00498541 0.414176)
(-0.000393233 0.00498541 0.414176)
(-0.00113877 0.00472603 0.409124)
(-0.00176191 0.00424822 0.399321)
(-0.00224937 0.00360604 0.385352)
(-0.00251476 0.00290878 0.368108)
(0.00685049 0.00794708 0.591713)
(0.00608651 0.00974248 0.617889)
(0.00477087 0.0113729 0.638981)
(0.003066 0.012586 0.653741)
(0.00105711 0.0132398 0.661334)
(-0.00105714 0.0132398 0.661334)
(-0.00306603 0.012586 0.653741)
(-0.0047709 0.0113729 0.638981)
(-0.00608653 0.00974247 0.617889)
(-0.00685051 0.00794707 0.591713)
(0.0125737 0.0145888 0.796257)
(0.0110985 0.0176901 0.829305)
(0.0086743 0.0204804 0.855753)
(0.00555086 0.0225459 0.874197)
(0.00191053 0.0236536 0.883666)
(-0.00191058 0.0236535 0.883666)
(-0.00555091 0.0225459 0.874197)
(-0.00867434 0.0204804 0.855753)
(-0.0110985 0.0176901 0.829305)
(-0.0125737 0.0145888 0.796257)
(0.0188082 0.0217873 0.981006)
(0.0164818 0.0261086 1.01892)
(0.0128243 0.0299607 1.04901)
(0.00817201 0.0327933 1.06992)
(0.00280723 0.0343049 1.08063)
(-0.00280729 0.0343049 1.08063)
(-0.00817207 0.0327933 1.06992)
(-0.0128243 0.0299607 1.04901)
(-0.0164818 0.0261086 1.01892)
(-0.0188083 0.0217873 0.981006)
(0.0247834 0.0286277 1.14584)
(0.0215457 0.0338614 1.18675)
(0.0166739 0.0384768 1.21894)
(0.0105782 0.0418453 1.2412)
(0.00362605 0.0436338 1.25258)
(-0.00362613 0.0436338 1.25258)
(-0.0105783 0.0418453 1.2412)
(-0.016674 0.0384768 1.21894)
(-0.0215458 0.0338613 1.18675)
(-0.0247835 0.0286277 1.14584)
(0.0298826 0.0343879 1.29107)
(0.0257537 0.0400822 1.33331)
(0.019809 0.0450388 1.36624)
(0.0125081 0.0486271 1.38893)
(0.00427767 0.0505219 1.40048)
(-0.00427777 0.0505219 1.40048)
(-0.0125082 0.0486271 1.38893)
(-0.019809 0.0450388 1.36624)
(-0.0257538 0.0400822 1.33331)
(-0.0298826 0.0343879 1.29107)
(0.0336508 0.0385349 1.41723)
(0.0287312 0.0441687 1.45941)
(0.0219518 0.0489937 1.49201)
(0.0137913 0.0524546 1.51435)
(0.00470459 0.0542715 1.52568)
(-0.0047047 0.0542715 1.52568)
(-0.0137915 0.0524546 1.51435)
(-0.0219519 0.0489937 1.49201)
(-0.0287313 0.0441687 1.45941)
(-0.0336509 0.0385349 1.41723)
(0.0358427 0.0407618 1.52489)
(0.0302968 0.0458221 1.56608)
(0.0229701 0.0500333 1.59755)
(0.0143467 0.0530239 1.61893)
(0.0048795 0.0545827 1.62973)
(-0.00487962 0.0545827 1.62973)
(-0.0143468 0.0530239 1.61893)
(-0.0229702 0.0500333 1.59755)
(-0.0302969 0.0458221 1.56608)
(-0.0358428 0.0407618 1.52489)
(0.0364291 0.0413758 1.61444)
(0.030416 0.0449528 1.65478)
(0.0228034 0.0480473 1.68444)
(0.0141374 0.0502134 1.70431)
(0.00479055 0.0513313 1.71426)
(-0.00479068 0.0513313 1.71426)
(-0.0141375 0.0502134 1.70431)
(-0.0228035 0.0480473 1.68444)
(-0.0304161 0.0449528 1.65478)
(-0.0364292 0.0413758 1.61444)
(7.97469e-05 0.000107598 0.123965)
(5.58682e-05 0.000136489 0.130106)
(3.42754e-05 0.000153234 0.135067)
(2.09787e-05 0.000161518 0.138549)
(6.81925e-06 0.000165487 0.140345)
(-6.82251e-06 0.000165487 0.140345)
(-2.09819e-05 0.000161517 0.138549)
(-3.42783e-05 0.000153232 0.135067)
(-5.5871e-05 0.000136488 0.130106)
(-7.97494e-05 0.000107596 0.123965)
(0.00104149 0.00124366 0.359604)
(0.000894734 0.00154252 0.376402)
(0.000684333 0.0017941 0.389953)
(0.000437063 0.0019747 0.399452)
(0.000150032 0.00207129 0.404345)
(-0.000150046 0.00207129 0.404345)
(-0.000437076 0.0019747 0.399452)
(-0.000684345 0.00179409 0.389953)
(-0.000894745 0.00154252 0.376402)
(-0.0010415 0.00124365 0.359604)
(0.00287043 0.00337853 0.579288)
(0.00250706 0.0041557 0.605032)
(0.00194666 0.00483389 0.625726)
(0.00124556 0.00533173 0.640204)
(0.000428593 0.00559877 0.647653)
(-0.000428619 0.00559877 0.647653)
(-0.00124559 0.00533173 0.640204)
(-0.00194669 0.00483389 0.625726)
(-0.00250708 0.0041557 0.605032)
(-0.00287045 0.00337852 0.579288)
(0.00538082 0.00629416 0.782301)
(0.00471279 0.00767345 0.815237)
(0.0036706 0.00888916 0.841576)
(0.00234646 0.00978513 0.859961)
(0.000807346 0.0102652 0.869405)
(-0.000807386 0.0102652 0.869405)
(-0.0023465 0.00978512 0.859961)
(-0.00367063 0.00888915 0.841576)
(-0.00471282 0.00767344 0.815237)
(-0.00538085 0.00629415 0.782301)
(0.00824695 0.00960227 0.968154)
(0.00720681 0.0115861 1.00653)
(0.00560607 0.013335 1.03703)
(0.0035753 0.0146213 1.05825)
(0.00122887 0.0153086 1.06914)
(-0.00122893 0.0153086 1.06914)
(-0.00357535 0.0146213 1.05825)
(-0.00560612 0.013335 1.03703)
(-0.00720685 0.0115861 1.00653)
(-0.00824699 0.00960226 0.968153)
(0.0111369 0.0129098 1.13658)
(0.00968409 0.0153907 1.17869)
(0.00750679 0.0175659 1.21193)
(0.00477167 0.0191578 1.23498)
(0.00163746 0.0200051 1.24678)
(-0.00163753 0.0200051 1.24678)
(-0.00477174 0.0191578 1.23498)
(-0.00750686 0.0175659 1.21193)
(-0.00968416 0.0153907 1.17869)
(-0.0111369 0.0129098 1.13658)
(0.013744 0.0158573 1.28747)
(0.0118701 0.0186413 1.33173)
(0.00915588 0.0210586 1.36639)
(0.00579646 0.0228156 1.39035)
(0.00198513 0.0237464 1.40259)
(-0.00198522 0.0237464 1.40259)
(-0.00579654 0.0228156 1.39035)
(-0.00915596 0.0210586 1.36639)
(-0.0118702 0.0186413 1.33173)
(-0.013744 0.0158573 1.28747)
(0.0158092 0.0181397 1.42082)
(0.0135431 0.0209772 1.4658)
(0.0103837 0.0234072 1.50075)
(0.00654296 0.025158 1.52481)
(0.00223545 0.0260802 1.53705)
(-0.00223555 0.0260802 1.53705)
(-0.00654306 0.025158 1.52481)
(-0.0103838 0.0234072 1.50075)
(-0.0135432 0.0209772 1.4658)
(-0.0158093 0.0181397 1.42082)
(0.0171617 0.0195433 1.53654)
(0.014565 0.0221698 1.58121)
(0.0110847 0.0243594 1.61556)
(0.00694454 0.0259206 1.63901)
(0.00236566 0.0267367 1.65088)
(-0.00236577 0.0267367 1.65088)
(-0.00694465 0.0259206 1.63901)
(-0.0110848 0.0243594 1.61556)
(-0.0145651 0.0221698 1.58121)
(-0.0171618 0.0195433 1.53654)
(0.0177365 0.0201678 1.63431)
(0.0148678 0.0221071 1.67877)
(0.0111902 0.02377 1.71168)
(0.00695825 0.0249374 1.73384)
(0.00236139 0.0255413 1.74496)
(-0.0023615 0.0255413 1.74496)
(-0.00695836 0.0249374 1.73384)
(-0.0111903 0.0237701 1.71168)
(-0.0148679 0.0221071 1.67877)
(-0.0177365 0.0201678 1.63431)
(1.2322e-05 1.51567e-05 0.122464)
(8.40153e-06 2.07045e-05 0.128537)
(4.72633e-06 2.43499e-05 0.13344)
(3.48168e-06 2.64423e-05 0.136883)
(1.17012e-06 2.76579e-05 0.138658)
(-1.17262e-06 2.76577e-05 0.138658)
(-3.48415e-06 2.64418e-05 0.136883)
(-4.72867e-06 2.4349e-05 0.13344)
(-8.40383e-06 2.07032e-05 0.128537)
(-1.2324e-05 1.51551e-05 0.122464)
(0.000362571 0.00042365 0.355362)
(0.000316568 0.000528804 0.37199)
(0.000245224 0.000620544 0.385396)
(0.000158314 0.000688341 0.394796)
(5.4604e-05 0.000725184 0.399639)
(-5.46145e-05 0.000725184 0.399639)
(-0.000158324 0.000688339 0.394796)
(-0.000245233 0.000620541 0.385396)
(-0.000316577 0.0005288 0.37199)
(-0.000362579 0.000423646 0.355362)
(0.00108261 0.00125961 0.57295)
(0.00095497 0.00155796 0.598506)
(0.000747585 0.00182337 0.619047)
(0.000481303 0.00202162 0.633427)
(0.000166093 0.00212894 0.640827)
(-0.000166114 0.00212894 0.640827)
(-0.000481323 0.00202162 0.633427)
(-0.000747604 0.00182337 0.619047)
(-0.000954988 0.00155796 0.598506)
(-0.00108263 0.0012596 0.572949)
(0.0021227 0.00246323 0.774834)
(0.00187444 0.00302003 0.807689)
(0.00147002 0.00351767 0.833978)
(0.00094446 0.00388947 0.852342)
(0.000325749 0.00409017 0.861782)
(-0.000325782 0.00409017 0.861782)
(-0.000944492 0.00388946 0.852342)
(-0.00147005 0.00351767 0.833978)
(-0.00187447 0.00302003 0.807689)
(-0.00212272 0.00246322 0.774834)
(0.00336158 0.00388914 0.9607)
(0.00296066 0.00472077 0.999228)
(0.00231832 0.00546285 1.02988)
(0.00148558 0.00601538 1.05125)
(0.000511806 0.00631265 1.06221)
(-0.000511851 0.00631265 1.06221)
(-0.00148562 0.00601537 1.05125)
(-0.00231836 0.00546284 1.02988)
(-0.0029607 0.00472076 0.999228)
(-0.00336162 0.00388913 0.9607)
(0.00466171 0.00537397 1.1303)
(0.00408578 0.00644709 1.1729)
(0.00318826 0.00739908 1.20658)
(0.00203626 0.00810401 1.22999)
(0.000700414 0.00848172 1.24198)
(-0.000700472 0.00848172 1.24198)
(-0.00203632 0.00810401 1.22999)
(-0.00318831 0.00739908 1.20658)
(-0.00408583 0.00644709 1.1729)
(-0.00466175 0.00537396 1.1303)
(0.00588432 0.00675458 1.28344)
(0.0051235 0.00799222 1.32857)
(0.0039786 0.00907969 1.36401)
(0.00253086 0.00987916 1.38856)
(0.000868803 0.0103054 1.40111)
(-0.000868873 0.0103054 1.40111)
(-0.00253092 0.00987916 1.38856)
(-0.00397866 0.00907969 1.36401)
(-0.00512356 0.00799221 1.32857)
(-0.00588437 0.00675457 1.28344)
(0.00690264 0.00788137 1.41988)
(0.00596254 0.00917454 1.46613)
(0.00460228 0.0102955 1.5022)
(0.00291367 0.0111118 1.52708)
(0.00099779 0.0115444 1.53976)
(-0.000997871 0.0115444 1.53976)
(-0.00291375 0.0111118 1.52708)
(-0.00460236 0.0102955 1.5022)
(-0.00596261 0.00917454 1.46613)
(-0.0069027 0.00788137 1.41988)
(0.0076248 0.00864113 1.53927)
(0.00652438 0.00986734 1.58559)
(0.00499731 0.0109014 1.62135)
(0.00314475 0.0116453 1.64583)
(0.00107359 0.0120362 1.65824)
(-0.00107368 0.0120362 1.65824)
(-0.00314484 0.0116453 1.64583)
(-0.0049974 0.0109014 1.62135)
(-0.00652445 0.00986734 1.58559)
(-0.00762487 0.00864113 1.53927)
(0.00800398 0.00906658 1.64096)
(0.0067575 0.0100034 1.68745)
(0.00511566 0.0108053 1.722)
(0.00319366 0.0113716 1.74531)
(0.0010859 0.0116656 1.75704)
(-0.001086 0.0116656 1.75704)
(-0.00319375 0.0113716 1.74531)
(-0.00511576 0.0108053 1.722)
(-0.00675758 0.0100034 1.68745)
(-0.00800406 0.00906659 1.64096)
(7.79576e-06 1.2387e-05 0.122065)
(3.24946e-06 1.6155e-05 0.128112)
(6.58032e-07 1.72781e-05 0.132988)
(1.6929e-07 1.73092e-05 0.136411)
(-2.28896e-08 1.72234e-05 0.138176)
(2.11008e-08 1.72232e-05 0.138176)
(-1.71057e-07 1.73088e-05 0.136411)
(-6.59744e-07 1.72774e-05 0.132988)
(-3.25119e-06 1.61541e-05 0.128112)
(-7.7972e-06 1.23858e-05 0.122065)
(0.000139664 0.00016968 0.354061)
(0.000115812 0.000212144 0.370611)
(8.6819e-05 0.000245593 0.383942)
(5.50917e-05 0.000269151 0.393289)
(1.88426e-05 0.000281682 0.398104)
(-1.88504e-05 0.000281682 0.398104)
(-5.50994e-05 0.00026915 0.393289)
(-8.68263e-05 0.000245592 0.383942)
(-0.000115819 0.000212142 0.370611)
(-0.00013967 0.000169676 0.354061)
(0.00041989 0.000496806 0.570861)
(0.000362656 0.000616355 0.596319)
(0.000280324 0.000718234 0.616768)
(0.000179301 0.000793066 0.631083)
(6.16874e-05 0.000833282 0.638449)
(-6.1703e-05 0.000833281 0.638448)
(-0.000179317 0.000793065 0.631082)
(-0.000280339 0.000718231 0.616768)
(-0.000362669 0.000616351 0.596319)
(-0.000419902 0.000496801 0.570861)
(0.000835503 0.000978367 0.77226)
(0.00073029 0.00120464 0.805047)
(0.000569483 0.00140242 0.831273)
(0.000364929 0.0015492 0.849596)
(0.000125723 0.00162824 0.859015)
(-0.000125748 0.00162824 0.859015)
(-0.000364954 0.0015492 0.849596)
(-0.000569506 0.00140242 0.831273)
(-0.000730312 0.00120463 0.805047)
(-0.000835522 0.000978362 0.77226)
(0.00134606 0.00156601 0.958065)
(0.00117976 0.00191064 0.996613)
(0.000921767 0.00221438 1.02729)
(0.000590304 0.00244006 1.04867)
(0.000203332 0.00256145 1.05965)
(-0.000203367 0.00256145 1.05965)
(-0.000590338 0.00244006 1.04867)
(-0.0009218 0.00221438 1.02729)
(-0.00117979 0.00191064 0.996613)
(-0.00134609 0.001566 0.958064)
(0.00189925 0.00219773 1.12808)
(0.00166159 0.00265178 1.17085)
(0.00129632 0.00305176 1.20467)
(0.00082838 0.00334803 1.22819)
(0.000285042 0.00350693 1.24025)
(-0.000285087 0.00350693 1.24025)
(-0.000828424 0.00334803 1.22819)
(-0.00129636 0.00305176 1.20467)
(-0.00166163 0.00265178 1.17085)
(-0.00189928 0.00219772 1.12808)
(0.00243693 0.00280516 1.28211)
(0.00212203 0.00333968 1.32758)
(0.0016495 0.00380756 1.36332)
(0.00105058 0.0041521 1.3881)
(0.000360898 0.00433608 1.40077)
(-0.000360953 0.00433608 1.40077)
(-0.00105064 0.0041521 1.3881)
(-0.00164955 0.00380756 1.36332)
(-0.00212208 0.00333967 1.32758)
(-0.00243697 0.00280516 1.28211)
(0.00290181 0.00332048 1.41986)
(0.00250988 0.00389023 1.46665)
(0.00194068 0.00438334 1.50317)
(0.00123066 0.00474324 1.5284)
(0.000421806 0.00493428 1.54127)
(-0.000421871 0.00493428 1.54127)
(-0.00123072 0.00474324 1.5284)
(-0.00194074 0.00438334 1.50317)
(-0.00250994 0.00389023 1.46665)
(-0.00290186 0.00332048 1.41986)
(0.0032487 0.00368773 1.54086)
(0.00278556 0.00423888 1.58791)
(0.00213818 0.00470378 1.62429)
(0.001348 0.00503889 1.64922)
(0.000460625 0.00521524 1.66187)
(-0.000460697 0.00521524 1.66187)
(-0.00134807 0.00503889 1.64922)
(-0.00213825 0.00470378 1.62429)
(-0.00278563 0.00423889 1.58791)
(-0.00324876 0.00368773 1.54086)
(0.00345076 0.00391437 1.64432)
(0.00291983 0.00434673 1.69174)
(0.00221566 0.00471521 1.72703)
(0.0013858 0.00497589 1.75088)
(0.000471637 0.00511141 1.76289)
(-0.000471714 0.00511141 1.76289)
(-0.00138588 0.00497589 1.75088)
(-0.00221573 0.00471521 1.72703)
(-0.0029199 0.00434673 1.69174)
(-0.00345082 0.00391437 1.64432)
(-4.02952e-07 2.32441e-07 0.121887)
(-1.44157e-06 7.31545e-07 0.127924)
(-1.63981e-06 5.65068e-07 0.132792)
(-1.06522e-06 2.56629e-07 0.13621)
(-3.84783e-07 8.18387e-08 0.137972)
(3.83598e-07 8.17578e-08 0.137972)
(1.06404e-06 2.56377e-07 0.13621)
(1.63865e-06 5.64637e-07 0.132792)
(1.44036e-06 7.30898e-07 0.127924)
(4.01939e-07 2.31624e-07 0.121887)
(3.98083e-05 4.78789e-05 0.35349)
(3.27581e-05 6.08109e-05 0.37001)
(2.45482e-05 7.10424e-05 0.383316)
(1.56857e-05 7.84e-05 0.392645)
(5.37669e-06 8.2368e-05 0.397451)
(-5.38216e-06 8.23677e-05 0.39745)
(-1.56911e-05 7.83992e-05 0.392645)
(-2.45534e-05 7.10411e-05 0.383316)
(-3.27632e-05 6.0809e-05 0.37001)
(-3.98126e-05 4.78764e-05 0.35349)
(0.000136145 0.000159804 0.56993)
(0.000117941 0.000200351 0.595348)
(9.16089e-05 0.000235236 0.615762)
(5.88861e-05 0.000261257 0.630052)
(2.03043e-05 0.000275357 0.637406)
(-2.03154e-05 0.000275357 0.637406)
(-5.8897e-05 0.000261255 0.630052)
(-9.16194e-05 0.000235234 0.615762)
(-0.000117951 0.000200349 0.595348)
(-0.000136154 0.0001598 0.56993)
(0.000287953 0.000334977 0.771075)
(0.000252973 0.000416109 0.803829)
(0.00019836 0.000487679 0.830027)
(0.000127681 0.000541474 0.848333)
(4.40816e-05 0.00057064 0.857743)
(-4.40997e-05 0.00057064 0.857743)
(-0.000127699 0.000541473 0.848332)
(-0.000198377 0.000487677 0.830027)
(-0.000252989 0.000416105 0.803829)
(-0.000287967 0.000334973 0.771075)
(0.000482621 0.000558205 0.956785)
(0.000425529 0.000686569 0.99533)
(0.00033441 0.000800723 1.02601)
(0.000215101 0.000886519 1.04739)
(7.42499e-05 0.000932957 1.05837)
(-7.42756e-05 0.000932956 1.05837)
(-0.000215126 0.000886518 1.04739)
(-0.000334434 0.000800721 1.02601)
(-0.000425551 0.000686566 0.99533)
(-0.00048264 0.000558201 0.956785)
(0.000701192 0.000806981 1.1269)
(0.000617477 0.000981156 1.16972)
(0.000484634 0.00113598 1.20359)
(0.00031106 0.0012519 1.22715)
(0.000107264 0.00131444 1.23923)
(-0.000107297 0.00131444 1.23923)
(-0.000311092 0.0012519 1.22715)
(-0.000484665 0.00113598 1.20359)
(-0.000617507 0.000981154 1.16972)
(-0.000701218 0.000806978 1.1269)
(0.000920825 0.00105443 1.28123)
(0.00080742 0.00126452 1.32682)
(0.000631462 0.00145013 1.36267)
(0.000403954 0.0015882 1.38754)
(0.000139063 0.00166234 1.40027)
(-0.000139105 0.00166234 1.40027)
(-0.000403995 0.0015882 1.38754)
(-0.000631501 0.00145013 1.36267)
(-0.000807456 0.00126452 1.32682)
(-0.000920857 0.00105442 1.28123)
(0.00111769 0.00127236 1.41947)
(0.000973701 0.00150111 1.46646)
(0.000757444 0.00170093 1.50317)
(0.000482384 0.00184812 1.52854)
(0.000165678 0.00192665 1.54148)
(-0.000165727 0.00192665 1.54148)
(-0.000482431 0.00184812 1.52854)
(-0.00075749 0.00170093 1.50317)
(-0.000973744 0.00150111 1.46646)
(-0.00111773 0.00127235 1.41947)
(0.001272 0.00143652 1.5411)
(0.0010984 0.00166229 1.58844)
(0.000847965 0.00185428 1.62508)
(0.000536728 0.0019937 1.6502)
(0.000183756 0.00206738 1.66295)
(-0.000183811 0.00206738 1.66295)
(-0.000536782 0.0019937 1.6502)
(-0.000848017 0.00185429 1.62508)
(-0.00109845 0.00166229 1.58844)
(-0.00127204 0.00143653 1.5411)
(0.00137051 0.00154862 1.64528)
(0.0011667 0.0017305 1.69308)
(0.000889911 0.00188504 1.7287)
(0.000558558 0.00199489 1.75278)
(0.000190413 0.00205217 1.7649)
(-0.000190473 0.00205217 1.7649)
(-0.000558617 0.00199489 1.75278)
(-0.000889967 0.00188505 1.7287)
(-0.00116675 0.0017305 1.69308)
(-0.00137056 0.00154862 1.64528)
(3.50871e-08 8.00729e-07 0.121857)
(-8.23359e-07 1.18939e-06 0.127892)
(-1.03297e-06 1.024e-06 0.132757)
(-7.49596e-07 7.37319e-07 0.136172)
(-2.78217e-07 5.54337e-07 0.137933)
(2.77492e-07 5.54288e-07 0.137933)
(7.48873e-07 7.37161e-07 0.136172)
(1.03221e-06 1.02372e-06 0.132757)
(8.22578e-07 1.18895e-06 0.127892)
(-3.57541e-08 8.00202e-07 0.121857)
(1.14853e-05 1.50525e-05 0.353354)
(8.16896e-06 1.93667e-05 0.369863)
(5.47678e-06 2.21282e-05 0.383157)
(3.29318e-06 2.38849e-05 0.392478)
(1.09141e-06 2.47778e-05 0.397278)
(-1.09502e-06 2.47776e-05 0.397278)
(-3.29673e-06 2.38844e-05 0.392478)
(-5.48033e-06 2.21274e-05 0.383157)
(-8.17233e-06 1.93653e-05 0.369863)