/*--------------------------------*- C++ -*----------------------------------*\
| =========                 |                                                 |
| \\      /  F ield         | OpenFOAM: The Open Source CFD Toolbox           |
|  \\    /   O peration     | Version:  2106                                  |
|   \\  /    A nd           | Website:  www.openfoam.com                      |
|    \\/     M anipulation  |                                                 |
\*---------------------------------------------------------------------------*/
FoamFile
{
    version     2.0;
    format      ascii;
    arch        "LSB;label=32;scalar=64";
    class       volVectorField;
    location    "0.02";
    object      U;
}
// * * * * * * * * * * * * * * * * * * * * * * * * * * * * * * * * * * * * * //

dimensions      [0 1 -1 0 0 0 0];

internalField   nonuniform List<vector> 
10000
(
(0.0117811 0.0136867 0.0840251)
(0.0100649 0.0153045 0.0871536)
(0.00754887 0.0168337 0.0896359)
(0.00468385 0.0179196 0.0913153)
(0.00158753 0.0184851 0.0921598)
(-0.00158753 0.0184851 0.0921598)
(-0.00468385 0.0179196 0.0913153)
(-0.00754887 0.0168337 0.0896359)
(-0.0100649 0.0153044 0.0871536)
(-0.0117811 0.0136867 0.0840251)
(0.0266854 0.0314501 0.156047)
(0.0224156 0.0347497 0.158674)
(0.0166142 0.0377493 0.160629)
(0.0102155 0.0398275 0.161875)
(0.00344675 0.0408951 0.162476)
(-0.00344675 0.0408951 0.162476)
(-0.0102155 0.0398275 0.161875)
(-0.0166142 0.0377493 0.160629)
(-0.0224156 0.0347497 0.158674)
(-0.0266854 0.0314501 0.156047)
(0.0287349 0.0341104 0.183473)
(0.0238847 0.0368709 0.184558)
(0.0175018 0.0394978 0.18524)
(0.0106754 0.0412795 0.185605)
(0.00358781 0.0421861 0.185755)
(-0.00358781 0.0421861 0.185755)
(-0.0106754 0.0412795 0.185605)
(-0.0175018 0.0394978 0.18524)
(-0.0238847 0.0368709 0.184558)
(-0.0287349 0.0341104 0.183473)
(0.0256542 0.0306006 0.192458)
(0.0212734 0.0324367 0.192494)
(0.015476 0.0343744 0.192333)
(0.00939065 0.0356694 0.19214)
(0.00314847 0.036325 0.192013)
(-0.00314846 0.036325 0.192013)
(-0.00939065 0.0356694 0.19214)
(-0.015476 0.0343744 0.192333)
(-0.0212734 0.0324367 0.192494)
(-0.0256542 0.0306006 0.192458)
(0.0218691 0.0262388 0.194276)
(0.0181452 0.0272877 0.193781)
(0.0131416 0.0286528 0.193214)
(0.00794575 0.0295606 0.192765)
(0.00266023 0.0300197 0.192517)
(-0.00266023 0.0300197 0.192517)
(-0.00794575 0.0295606 0.192765)
(-0.0131416 0.0286528 0.193214)
(-0.0181452 0.0272877 0.193781)
(-0.0218691 0.0262388 0.194276)
(0.0182273 0.0219758 0.193556)
(0.0151932 0.0224681 0.1929)
(0.0109892 0.0234086 0.192214)
(0.00663128 0.0240415 0.191701)
(0.0022189 0.0243623 0.191426)
(-0.0022189 0.0243623 0.191426)
(-0.00663129 0.0240415 0.191701)
(-0.0109892 0.0234086 0.192214)
(-0.0151931 0.0224681 0.1929)
(-0.0182273 0.0219758 0.193556)
(0.0150903 0.0182408 0.192291)
(0.0126444 0.018315 0.191657)
(0.00914941 0.0189087 0.190995)
(0.00551372 0.0193262 0.190508)
(0.00184434 0.0195402 0.190249)
(-0.00184434 0.0195402 0.190249)
(-0.00551373 0.0193261 0.190508)
(-0.00914941 0.0189087 0.190995)
(-0.0126444 0.018315 0.191657)
(-0.0150903 0.0182408 0.192291)
(0.0124157 0.0149844 0.191137)
(0.0104518 0.0147574 0.190601)
(0.00758072 0.0150542 0.190029)
(0.0045666 0.0152989 0.189609)
(0.00152742 0.0154273 0.189387)
(-0.00152743 0.0154273 0.189387)
(-0.0045666 0.0152989 0.189609)
(-0.00758071 0.0150542 0.190029)
(-0.0104518 0.0147574 0.190601)
(-0.0124157 0.0149844 0.191137)
(0.0101929 0.0122499 0.190275)
(0.00862941 0.011793 0.189853)
(0.00625695 0.0118463 0.189395)
(0.00377464 0.0119316 0.189057)
(0.00126128 0.011991 0.18888)
(-0.00126128 0.011991 0.18888)
(-0.00377464 0.0119316 0.189057)
(-0.00625695 0.0118463 0.189395)
(-0.00862941 0.011793 0.189853)
(-0.0101929 0.0122499 0.190275)
(0.00856209 0.00990238 0.189708)
(0.00715672 0.00935773 0.189387)
(0.00520221 0.00923559 0.189035)
(0.00312007 0.00922725 0.188779)
(0.00104563 0.00923024 0.188646)
(-0.00104563 0.00923024 0.188646)
(-0.00312007 0.00922725 0.188779)
(-0.00520222 0.00923558 0.189035)
(-0.00715673 0.00935773 0.189387)
(-0.00856207 0.00990239 0.189708)
(0.00239602 0.00312647 0.106325)
(0.00192299 0.00379549 0.110631)
(0.00142259 0.00426623 0.114154)
(0.000884474 0.00457147 0.116574)
(0.000300733 0.00472623 0.117801)
(-0.00030073 0.00472623 0.117801)
(-0.000884474 0.00457147 0.116574)
(-0.00142258 0.00426623 0.114154)
(-0.00192299 0.00379549 0.110631)
(-0.00239602 0.00312647 0.106325)
(0.00649584 0.00828392 0.207656)
(0.00529665 0.00979205 0.21189)
(0.00391539 0.0109064 0.215245)
(0.00242263 0.0116305 0.217459)
(0.000821348 0.0119961 0.218551)
(-0.000821347 0.0119961 0.218551)
(-0.00242263 0.0116305 0.217459)
(-0.00391539 0.0109064 0.215245)
(-0.00529665 0.00979205 0.21189)
(-0.00649583 0.00828392 0.207656)
(0.0093367 0.0118385 0.251432)
(0.00759 0.013657 0.253591)
(0.00555434 0.0150214 0.255236)
(0.00340552 0.0158896 0.256251)
(0.00114912 0.0163218 0.256726)
(-0.00114912 0.0163218 0.256726)
(-0.00340552 0.0158896 0.256251)
(-0.00555434 0.0150214 0.255236)
(-0.00759 0.013657 0.253591)
(-0.0093367 0.0118385 0.251432)
(0.0105938 0.0134645 0.267511)
(0.00855972 0.0152256 0.268017)
(0.00619611 0.0165634 0.268314)
(0.0037659 0.0173902 0.268423)
(0.00126526 0.0177947 0.268445)
(-0.00126527 0.0177947 0.268445)
(-0.0037659 0.0173902 0.268423)
(-0.00619611 0.0165634 0.268314)
(-0.00855972 0.0152256 0.268017)
(-0.0105938 0.0134645 0.267511)
(0.0108466 0.0138726 0.271574)
(0.00871539 0.0154376 0.271084)
(0.00624773 0.0166444 0.2706)
(0.00376728 0.017367 0.270206)
(0.00126098 0.0177134 0.269984)
(-0.00126098 0.0177134 0.269984)
(-0.00376727 0.017367 0.270206)
(-0.00624773 0.0166444 0.2706)
(-0.0087154 0.0154376 0.271084)
(-0.0108466 0.0138726 0.271574)
(0.0105809 0.0136509 0.27071)
(0.00845018 0.0149846 0.26981)
(0.00600212 0.0160275 0.269002)
(0.00359099 0.0166311 0.26841)
(0.00119758 0.0169131 0.268096)
(-0.00119758 0.0169131 0.268096)
(-0.00359099 0.0166311 0.26841)
(-0.00600212 0.0160275 0.269002)
(-0.00845019 0.0149846 0.26981)
(-0.0105809 0.0136509 0.27071)
(0.0100286 0.0130714 0.268472)
(0.00794303 0.0141716 0.267495)
(0.00558946 0.015035 0.266605)
(0.00331725 0.0155176 0.265969)
(0.00110202 0.0157368 0.265638)
(-0.00110202 0.0157368 0.265638)
(-0.00331725 0.0155176 0.265969)
(-0.00558946 0.015035 0.266605)
(-0.00794304 0.0141716 0.267495)
(-0.0100286 0.0130714 0.268472)
(0.00929297 0.012239 0.266152)
(0.00727064 0.0131063 0.265253)
(0.00506918 0.0137781 0.264402)
(0.00298589 0.0141505 0.263795)
(0.000988265 0.0143149 0.263482)
(-0.000988264 0.0143149 0.263482)
(-0.00298589 0.0141505 0.263795)
(-0.00506918 0.0137781 0.264402)
(-0.00727065 0.0131063 0.265253)
(-0.00929297 0.012239 0.266152)
(0.00838634 0.0111327 0.264159)
(0.0065045 0.0117419 0.263399)
(0.00448765 0.0122499 0.262648)
(0.00263482 0.0125329 0.262105)
(0.000868953 0.0126669 0.261826)
(-0.000868954 0.0126669 0.261826)
(-0.00263482 0.0125329 0.262105)
(-0.00448766 0.0122498 0.262648)
(-0.0065045 0.0117419 0.263399)
(-0.00838636 0.0111327 0.264159)
(0.00749735 0.00955877 0.262617)
(0.00574969 0.00991755 0.261958)
(0.00398473 0.010302 0.261319)
(0.00232862 0.0105672 0.260863)
(0.00077163 0.0106948 0.260628)
(-0.00077163 0.0106948 0.260628)
(-0.00232862 0.0105672 0.260863)
(-0.00398474 0.010302 0.261319)
(-0.00574969 0.00991756 0.261958)
(-0.00749733 0.00955876 0.262617)
(0.000154817 0.000137529 0.0879919)
(0.000187196 0.000176422 0.0919824)
(0.000160477 0.000246957 0.0953362)
(0.00010902 0.000305007 0.0976817)
(3.85513e-05 0.000337684 0.0988836)
(-3.8549e-05 0.000337685 0.0988836)
(-0.000109018 0.000305008 0.0976817)
(-0.000160475 0.000246957 0.0953362)
(-0.000187196 0.000176422 0.0919824)
(-0.000154818 0.00013753 0.0879919)
(0.00118988 0.00132006 0.179996)
(0.00113797 0.0015858 0.184643)
(0.000909123 0.00189123 0.188501)
(0.000588247 0.00212531 0.191135)
(0.000203513 0.00225233 0.192461)
(-0.000203512 0.00225234 0.192461)
(-0.000588244 0.00212531 0.191135)
(-0.000909122 0.00189124 0.188501)
(-0.00113797 0.0015858 0.184643)
(-0.00118988 0.00132006 0.179996)
(0.00236861 0.00271881 0.224305)
(0.0021693 0.00317885 0.227443)
(0.00169549 0.00367193 0.23005)
(0.0010804 0.00403958 0.231795)
(0.000371083 0.00423634 0.232659)
(-0.000371082 0.00423635 0.232659)
(-0.0010804 0.00403958 0.231795)
(-0.00169549 0.00367194 0.23005)
(-0.0021693 0.00317886 0.227443)
(-0.00236861 0.00271881 0.224305)
(0.0033736 0.00393966 0.243538)
(0.00301991 0.00449157 0.245187)
(0.00232592 0.00508012 0.246572)
(0.00146664 0.0055115 0.247484)
(0.000501254 0.00574038 0.247927)
(-0.000501254 0.00574039 0.247927)
(-0.00146664 0.00551149 0.247484)
(-0.00232592 0.00508012 0.246572)
(-0.00301991 0.00449157 0.245187)
(-0.0033736 0.00393966 0.243538)
(0.0040148 0.00473029 0.250716)
(0.00354903 0.00527361 0.251322)
(0.00270729 0.00587163 0.251872)
(0.00169481 0.00630667 0.252233)
(0.000577314 0.00653641 0.252405)
(-0.000577314 0.00653641 0.252405)
(-0.00169481 0.00630667 0.252233)
(-0.00270729 0.00587164 0.251872)
(-0.00354903 0.00527362 0.251322)
(-0.0040148 0.0047303 0.250716)
(0.00431202 0.00510007 0.252287)
(0.00378295 0.00556583 0.252324)
(0.00286802 0.00611308 0.252419)
(0.00178621 0.00651254 0.252486)
(0.000607051 0.00672324 0.252515)
(-0.00060705 0.00672324 0.252515)
(-0.00178621 0.00651254 0.252486)
(-0.00286802 0.00611308 0.252419)
(-0.00378294 0.00556583 0.252324)
(-0.00431202 0.00510008 0.252287)
(0.00434131 0.00513149 0.251668)
(0.00379004 0.0054838 0.251443)
(0.00286295 0.00594105 0.25131)
(0.00177644 0.00628 0.25123)
(0.000602688 0.0064595 0.25119)
(-0.000602686 0.0064595 0.25119)
(-0.00177644 0.00628 0.25123)
(-0.00286295 0.00594105 0.25131)
(-0.00379003 0.0054838 0.251443)
(-0.0043413 0.0051315 0.251668)
(0.00418674 0.00492204 0.250284)
(0.00363598 0.0051467 0.249955)
(0.00274033 0.00548483 0.249718)
(0.00169577 0.00574718 0.24957)
(0.000574514 0.00588698 0.249497)
(-0.000574512 0.00588698 0.249497)
(-0.00169577 0.00574718 0.24957)
(-0.00274033 0.00548484 0.249718)
(-0.00363598 0.00514671 0.249955)
(-0.00418673 0.00492205 0.250284)
(0.00390997 0.00456261 0.248733)
(0.00338903 0.00465054 0.248372)
(0.00253868 0.00486267 0.248094)
(0.00156925 0.00503361 0.247912)
(0.000530396 0.00513045 0.247823)
(-0.000530396 0.00513045 0.247823)
(-0.00156925 0.00503361 0.247912)
(-0.00253868 0.00486268 0.248094)
(-0.00338903 0.00465056 0.248372)
(-0.00390996 0.00456263 0.248733)
(0.00363994 0.00410725 0.247345)
(0.00309763 0.00409059 0.246951)
(0.00231608 0.00418133 0.24663)
(0.00141869 0.00427451 0.246418)
(0.000480184 0.00432616 0.246313)
(-0.000480185 0.00432616 0.246313)
(-0.00141869 0.00427451 0.246418)
(-0.00231606 0.00418134 0.24663)
(-0.00309763 0.00409061 0.246951)
(-0.00363992 0.00410725 0.247345)
(0.000112505 0.000144528 0.0878196)
(9.23278e-05 0.000177051 0.0916494)
(6.57629e-05 0.000201152 0.094829)
(4.05029e-05 0.000215742 0.0970427)
(1.37446e-05 0.000223105 0.098175)
(-1.37416e-05 0.000223105 0.098175)
(-4.05013e-05 0.000215741 0.0970427)
(-6.57623e-05 0.000201153 0.094829)
(-9.23294e-05 0.000177052 0.0916494)
(-0.000112505 0.000144529 0.0878196)
(0.000507514 0.000631505 0.18028)
(0.000432789 0.000758668 0.184726)
(0.000323514 0.000863222 0.188352)
(0.000202456 0.000933276 0.190812)
(6.90837e-05 0.000969616 0.192046)
(-6.90816e-05 0.000969613 0.192046)
(-0.000202455 0.000933276 0.190812)
(-0.000323514 0.000863223 0.188352)
(-0.000432791 0.000758666 0.184726)
(-0.000507511 0.000631507 0.18028)
(0.00102098 0.00126354 0.225718)
(0.000873533 0.00148679 0.228749)
(0.000655584 0.001677 0.231196)
(0.00040927 0.00180602 0.232815)
(0.000139391 0.00187286 0.233612)
(-0.000139389 0.00187286 0.233612)
(-0.000409268 0.00180603 0.232815)
(-0.000655584 0.001677 0.231196)
(-0.000873535 0.00148679 0.228749)
(-0.00102097 0.00126355 0.225718)
(0.00150132 0.00186394 0.246427)
(0.00128129 0.00215364 0.248068)
(0.000958808 0.00240782 0.249373)
(0.000595991 0.00257961 0.250209)
(0.000202524 0.0026681 0.250611)
(-0.000202522 0.0026681 0.250611)
(-0.00059599 0.00257961 0.250209)
(-0.000958809 0.00240782 0.249373)
(-0.0012813 0.00215365 0.248068)
(-0.00150132 0.00186394 0.246427)
(0.00187261 0.00233791 0.255147)
(0.00159175 0.00265575 0.255815)
(0.00118513 0.00294256 0.256342)
(0.000732974 0.00313464 0.256662)
(0.000248475 0.00323281 0.256809)
(-0.000248472 0.00323281 0.256809)
(-0.000732972 0.00313464 0.256662)
(-0.00118513 0.00294256 0.256342)
(-0.00159176 0.00265575 0.255815)
(-0.00187261 0.00233791 0.255147)
(0.0021224 0.00266738 0.258194)
(0.00179396 0.00297856 0.258331)
(0.0013277 0.00326819 0.258436)
(0.000816635 0.0034604 0.258482)
(0.000276131 0.00355772 0.258495)
(-0.000276128 0.00355772 0.258495)
(-0.000816632 0.0034604 0.258482)
(-0.0013277 0.0032682 0.258436)
(-0.00179397 0.00297857 0.258331)
(-0.0021224 0.00266737 0.258194)
(0.00225538 0.0028543 0.258929)
(0.00189294 0.0031332 0.258823)
(0.00139235 0.00340131 0.258719)
(0.000851589 0.00357812 0.258629)
(0.000287183 0.00366691 0.258577)
(-0.00028718 0.00366691 0.258577)
(-0.000851583 0.00357813 0.258629)
(-0.00139235 0.00340133 0.258719)
(-0.00189295 0.00313321 0.258823)
(-0.00225538 0.00285429 0.258929)
(0.00228497 0.0029085 0.258775)
(0.00189934 0.00313657 0.258571)
(0.00138894 0.00336285 0.258374)
(0.000845112 0.00351428 0.258224)
(0.000284267 0.00358958 0.258143)
(-0.000284261 0.00358958 0.258143)
(-0.000845103 0.00351428 0.258224)
(-0.00138894 0.00336285 0.258374)
(-0.00189937 0.00313656 0.258571)
(-0.00228498 0.00290847 0.258775)
(0.00221875 0.00283133 0.258325)
(0.00183448 0.00299122 0.258091)
(0.00133115 0.00316868 0.257864)
(0.000807954 0.00328867 0.257693)
(0.000270906 0.00335048 0.257603)
(-0.000270899 0.00335048 0.257603)
(-0.000807948 0.00328867 0.257693)
(-0.00133116 0.00316867 0.257864)
(-0.0018345 0.00299119 0.258091)
(-0.00221878 0.0028313 0.258325)
(0.00211936 0.00259381 0.25784)
(0.00173017 0.00269226 0.257595)
(0.00125748 0.0028204 0.257361)
(0.000757776 0.00291779 0.257191)
(0.000254572 0.00296705 0.257101)
(-0.000254568 0.00296705 0.257101)
(-0.000757782 0.00291778 0.257191)
(-0.00125749 0.00282038 0.257361)
(-0.0017302 0.00269224 0.257595)
(-0.00211937 0.00259379 0.25784)
(3.38657e-05 3.87258e-05 0.0867959)
(3.18497e-05 4.82825e-05 0.0906166)
(2.40693e-05 5.8331e-05 0.0937941)
(1.52737e-05 6.52842e-05 0.0960087)
(5.24019e-06 6.89441e-05 0.0971419)
(-5.23907e-06 6.89447e-05 0.0971419)
(-1.52722e-05 6.5285e-05 0.0960087)
(-2.40681e-05 5.83317e-05 0.0937941)
(-3.18497e-05 4.82831e-05 0.0906166)
(-3.38661e-05 3.8726e-05 0.0867959)
(0.000174031 0.000205117 0.178336)
(0.000157802 0.000249044 0.182815)
(0.000121577 0.000291806 0.186481)
(7.72641e-05 0.000322442 0.188973)
(2.65256e-05 0.000338698 0.190225)
(-2.65252e-05 0.0003387 0.190225)
(-7.72633e-05 0.000322444 0.188973)
(-0.000121577 0.000291808 0.186481)
(-0.000157801 0.000249044 0.182815)
(-0.000174029 0.000205117 0.178336)
(0.000374669 0.000447797 0.223551)
(0.000334414 0.000532669 0.226666)
(0.000257219 0.00061386 0.229199)
(0.000162775 0.000672003 0.230883)
(5.57663e-05 0.00070276 0.231716)
(-5.57655e-05 0.000702761 0.231716)
(-0.000162774 0.000672003 0.230883)
(-0.000257218 0.000613861 0.229199)
(-0.000334414 0.00053267 0.226666)
(-0.000374665 0.000447798 0.223551)
(0.000585772 0.000706832 0.244416)
(0.000517311 0.000824309 0.246181)
(0.000395865 0.000937733 0.247609)
(0.000249281 0.00101856 0.248539)
(8.52059e-05 0.00106115 0.248991)
(-8.52064e-05 0.00106115 0.248991)
(-0.000249281 0.00101856 0.248539)
(-0.000395865 0.000937735 0.247609)
(-0.000517312 0.000824311 0.246181)
(-0.000585768 0.000706835 0.244416)
(0.000767444 0.000932416 0.253458)
(0.00067269 0.00106765 0.25428)
(0.000512058 0.00120112 0.254958)
(0.000320949 0.00129575 0.255392)
(0.000109473 0.0013454 0.255599)
(-0.000109473 0.0013454 0.255599)
(-0.000320949 0.00129575 0.255392)
(-0.000512057 0.00120112 0.254958)
(-0.000672691 0.00106766 0.25428)
(-0.000767442 0.000932422 0.253458)
(0.00090465 0.00110447 0.256886)
(0.000787548 0.00124164 0.25719)
(0.000596444 0.0013814 0.25746)
(0.000372145 0.00148032 0.257631)
(0.00012668 0.00153201 0.257709)
(-0.00012668 0.00153201 0.257709)
(-0.000372146 0.00148032 0.257631)
(-0.000596442 0.0013814 0.25746)
(-0.000787546 0.00124164 0.25719)
(-0.000904649 0.00110448 0.256886)
(0.000992512 0.00121498 0.257985)
(0.000857874 0.00134062 0.258045)
(0.000646678 0.00147362 0.258109)
(0.000401734 0.00156806 0.258147)
(0.000136474 0.0016173 0.258162)
(-0.000136474 0.0016173 0.258162)
(-0.000401737 0.00156806 0.258147)
(-0.000646677 0.00147362 0.258109)
(-0.000857868 0.00134062 0.258045)
(-0.00099251 0.00121499 0.257985)
(0.00103308 0.00126374 0.258146)
(0.000884779 0.00136743 0.258097)
(0.000664119 0.00148149 0.258062)
(0.000410943 0.00156428 0.258035)
(0.000139323 0.00160733 0.258019)
(-0.000139323 0.00160733 0.258019)
(-0.000410948 0.00156429 0.258035)
(-0.000664124 0.00148149 0.258062)
(-0.000884775 0.00136744 0.258097)
(-0.00103307 0.00126375 0.258146)
(0.00102914 0.00125367 0.257945)
(0.000876414 0.00132568 0.257851)
(0.00065298 0.00141405 0.257769)
(0.000403184 0.00147909 0.257711)
(0.000136286 0.00151401 0.25768)
(-0.000136284 0.00151401 0.25768)
(-0.000403184 0.00147909 0.257711)
(-0.00065299 0.00141407 0.257769)
(-0.000876417 0.00132569 0.257851)
(-0.00102914 0.00125367 0.257945)
(0.00100717 0.00118174 0.257644)
(0.000844934 0.00122235 0.257523)
(0.000628003 0.001282 0.257416)
(0.000384605 0.00132991 0.25734)
(0.000130113 0.00135526 0.257301)
(-0.000130106 0.00135526 0.257301)
(-0.000384595 0.00132991 0.25734)
(-0.000627999 0.001282 0.257416)
(-0.000844947 0.00122235 0.257523)
(-0.00100716 0.00118175 0.257644)
(1.42062e-05 1.65988e-05 0.0865393)
(1.30359e-05 2.05824e-05 0.0903445)
(9.68296e-06 2.45017e-05 0.0935063)
(6.09156e-06 2.71271e-05 0.0957094)
(2.08351e-06 2.84994e-05 0.0968367)
(-2.0814e-06 2.84994e-05 0.0968367)
(-6.08996e-06 2.71274e-05 0.0957094)
(-9.68179e-06 2.45022e-05 0.0935063)
(-1.30366e-05 2.05829e-05 0.0903445)
(-1.42067e-05 1.65993e-05 0.0865393)
(7.49132e-05 8.94203e-05 0.177862)
(6.69645e-05 0.000108163 0.182323)
(5.11008e-05 0.000125623 0.18597)
(3.23026e-05 0.000137908 0.188449)
(1.10663e-05 0.000144395 0.189694)
(-1.10638e-05 0.000144395 0.189694)
(-3.23008e-05 0.000137907 0.188449)
(-5.10992e-05 0.000125623 0.18597)
(-6.69649e-05 0.000108163 0.182323)
(-7.49118e-05 8.94233e-05 0.177862)
(0.000163424 0.000197171 0.223049)
(0.000144554 0.000234196 0.226161)
(0.000110527 0.000268543 0.228686)
(6.97216e-05 0.000292863 0.230364)
(2.38566e-05 0.000305694 0.231194)
(-2.38546e-05 0.000305694 0.231194)
(-6.972e-05 0.000292863 0.230364)
(-0.000110526 0.000268544 0.228686)
(-0.000144554 0.000234197 0.226161)
(-0.000163423 0.000197176 0.223049)
(0.000259433 0.000315807 0.244024)
(0.000227833 0.000368774 0.245804)
(0.000173756 0.000418627 0.247239)
(0.000109246 0.00045385 0.248173)
(3.73225e-05 0.000472377 0.248627)
(-3.73214e-05 0.000472377 0.248627)
(-0.000109245 0.000453851 0.248173)
(-0.000173756 0.000418629 0.247239)
(-0.000227832 0.000368777 0.245804)
(-0.000259429 0.000315813 0.244024)
(0.000346655 0.000425143 0.253259)
(0.00030267 0.000488364 0.254112)
(0.00022992 0.000549216 0.254812)
(0.000144011 0.000592028 0.25526)
(4.91173e-05 0.000614451 0.255474)
(-4.91158e-05 0.000614451 0.255474)
(-0.00014401 0.00059203 0.25526)
(-0.00022992 0.00054922 0.254812)
(-0.00030267 0.000488368 0.254112)
(-0.000346651 0.000425146 0.253259)
(0.000417424 0.000515152 0.256926)
(0.000362225 0.000581765 0.257275)
(0.000273908 0.000647758 0.257579)
(0.000170847 0.000694066 0.257771)
(5.81635e-05 0.000718204 0.257861)
(-5.81613e-05 0.000718204 0.257861)
(-0.000170845 0.000694069 0.257771)
(-0.000273908 0.000647764 0.257579)
(-0.000362228 0.000581771 0.257275)
(-0.000417419 0.000515151 0.256926)
(0.000467739 0.000580084 0.258284)
(0.000402987 0.000643577 0.258399)
(0.000303302 0.000708578 0.258506)
(0.000188359 0.000754236 0.258571)
(6.39951e-05 0.000777948 0.258601)
(-6.39916e-05 0.000777949 0.258601)
(-0.000188355 0.00075424 0.258571)
(-0.000303301 0.000708588 0.258506)
(-0.000402995 0.000643583 0.258399)
(-0.000467737 0.000580077 0.258284)
(0.000496422 0.000616989 0.258711)
(0.000423688 0.00067178 0.258721)
(0.000317443 0.000729721 0.258734)
(0.000196322 0.000771161 0.258738)
(6.65587e-05 0.000792575 0.258739)
(-6.65539e-05 0.000792577 0.258739)
(-0.000196314 0.000771166 0.258738)
(-0.000317441 0.000729728 0.258734)
(-0.000423703 0.000671779 0.258721)
(-0.000496426 0.000616975 0.258711)
(0.000502974 0.000623829 0.258766)
(0.000426741 0.000664522 0.258732)
(0.000317432 0.000711688 0.258702)
(0.000195835 0.000745868 0.258678)
(6.6189e-05 0.000763992 0.258665)
(-6.6183e-05 0.000763995 0.258665)
(-0.000195829 0.00074587 0.258678)
(-0.000317432 0.000711684 0.258702)
(-0.000426756 0.000664502 0.258732)
(-0.000502988 0.000623813 0.258766)
(0.000498693 0.000595091 0.258689)
(0.000418032 0.000621094 0.258635)
(0.000310103 0.000655751 0.258584)
(0.000189868 0.000682641 0.258547)
(6.4199e-05 0.000696743 0.258527)
(-6.41925e-05 0.000696742 0.258527)
(-0.000189869 0.000682635 0.258547)
(-0.000310107 0.000655737 0.258584)
(-0.000418043 0.00062108 0.258635)
(-0.000498695 0.000595081 0.258689)
(6.27618e-06 7.25954e-06 0.0864117)
(5.81146e-06 8.98563e-06 0.0902126)
(4.33274e-06 1.07216e-05 0.0933704)
(2.72517e-06 1.18901e-05 0.0955707)
(9.31765e-07 1.25002e-05 0.0966964)
(-9.29917e-07 1.25004e-05 0.0966964)
(-2.72406e-06 1.18909e-05 0.0955707)
(-4.33222e-06 1.07223e-05 0.0933704)
(-5.8124e-06 8.98553e-06 0.0902126)
(-6.27713e-06 7.2591e-06 0.0864117)
(3.29352e-05 3.91328e-05 0.177615)
(2.95985e-05 4.73623e-05 0.182074)
(2.26415e-05 5.51197e-05 0.185718)
(1.43214e-05 6.06001e-05 0.188195)
(4.90693e-06 6.34952e-05 0.189439)
(-4.90505e-06 6.34954e-05 0.189439)
(-1.43203e-05 6.06005e-05 0.188195)
(-2.2641e-05 5.51209e-05 0.185718)
(-2.95996e-05 4.73626e-05 0.182074)
(-3.2934e-05 3.91336e-05 0.177615)
(7.22879e-05 8.69678e-05 0.222769)
(6.42177e-05 0.000103463 0.225885)
(4.92248e-05 0.000118891 0.228413)
(3.10879e-05 0.000129865 0.230094)
(1.06427e-05 0.000135663 0.230924)
(-1.06405e-05 0.000135664 0.230924)
(-3.10868e-05 0.000129867 0.230094)
(-4.92248e-05 0.000118893 0.228413)
(-6.42196e-05 0.000103463 0.225885)
(-7.22871e-05 8.69682e-05 0.222769)
(0.000115928 0.000140801 0.243772)
(0.000102224 0.000164781 0.245563)
(7.81842e-05 0.000187515 0.247007)
(4.9238e-05 0.00020367 0.247948)
(1.68346e-05 0.000212188 0.248406)
(-1.68329e-05 0.000212189 0.248406)
(-4.92372e-05 0.000203672 0.247948)
(-7.8185e-05 0.000187518 0.247007)
(-0.000102226 0.000164781 0.245563)
(-0.000115927 0.000140801 0.243772)
(0.000156733 0.000191799 0.253069)
(0.000137427 0.000220936 0.253942)
(0.000104751 0.000249184 0.254658)
(6.5752e-05 0.000269203 0.255118)
(2.24495e-05 0.000279724 0.255339)
(-2.24469e-05 0.000279725 0.255339)
(-6.57506e-05 0.000269206 0.255118)
(-0.000104752 0.000249187 0.254658)
(-0.00013743 0.000220935 0.253942)
(-0.000156732 0.000191797 0.253069)
(0.000191077 0.000235226 0.256822)
(0.000166563 0.000266506 0.257196)
(0.000126456 0.000297722 0.257523)
(7.90846e-05 0.000319824 0.257732)
(2.69594e-05 0.000331397 0.257831)
(-2.69554e-05 0.000331399 0.257831)
(-7.9083e-05 0.000319828 0.257732)
(-0.000126459 0.000297725 0.257523)
(-0.000166568 0.000266503 0.257196)
(-0.000191076 0.000235221 0.256822)
(0.000216777 0.000268004 0.258278)
(0.000187662 0.000298374 0.258423)
(0.000141886 0.000329695 0.258557)
(8.83876e-05 0.000351931 0.258642)
(3.00773e-05 0.000363546 0.258682)
(-3.00707e-05 0.000363549 0.258682)
(-8.8386e-05 0.000351936 0.258642)
(-0.000141893 0.000329696 0.258557)
(-0.000187672 0.000298368 0.258423)
(-0.000216776 0.000267994 0.258278)
(0.000232836 0.000288182 0.258805)
(0.000199715 0.000314893 0.258848)
(0.000150393 0.000343323 0.258892)
(9.33315e-05 0.000363893 0.258919)
(3.16997e-05 0.000374597 0.258931)
(-3.16892e-05 0.000374599 0.258931)
(-9.33302e-05 0.000363897 0.258919)
(-0.000150406 0.000343322 0.258892)
(-0.000199734 0.000314886 0.258848)
(-0.000232836 0.000288162 0.258805)
(0.000238706 0.000294373 0.258959)
(0.000203464 0.000314698 0.258959)
(0.000152187 0.000338189 0.25896)
(9.42259e-05 0.000355458 0.25896)
(3.191e-05 0.000364652 0.258959)
(-3.18965e-05 0.000364651 0.258959)
(-9.42239e-05 0.000355455 0.25896)
(-0.000152205 0.000338184 0.25896)
(-0.000203493 0.000314686 0.258959)
(-0.000238719 0.000294355 0.258959)
(0.00023912 0.00028395 0.258969)
(0.000201546 0.000297178 0.258949)
(0.000150156 0.000314692 0.258932)
(9.22987e-05 0.000328313 0.258919)
(3.12535e-05 0.000335516 0.258912)
(-3.12442e-05 0.000335511 0.258912)
(-9.22947e-05 0.0003283 0.258919)
(-0.000150167 0.000314677 0.258932)
(-0.000201579 0.000297169 0.258949)
(-0.000239131 0.000283945 0.258969)
(2.83109e-06 3.26043e-06 0.0863555)
(2.63635e-06 4.0302e-06 0.0901542)
(1.97491e-06 4.81184e-06 0.0933101)
(1.24534e-06 5.34255e-06 0.0955089)
(4.2651e-07 5.62064e-06 0.0966339)
(-4.24878e-07 5.6209e-06 0.0966339)
(-1.24399e-06 5.34322e-06 0.0955089)
(-1.97412e-06 4.81274e-06 0.0933101)
(-2.63718e-06 4.03077e-06 0.0901542)
(-2.83217e-06 3.26004e-06 0.0863555)
(1.48939e-05 1.76684e-05 0.177506)
(1.34154e-05 2.1374e-05 0.181964)
(1.02802e-05 2.48765e-05 0.185606)
(6.50883e-06 2.73589e-05 0.188082)
(2.23156e-06 2.86728e-05 0.189326)
(-2.22907e-06 2.86734e-05 0.189326)
(-6.50655e-06 2.73601e-05 0.188082)
(-1.02785e-05 2.48782e-05 0.185606)
(-1.34159e-05 2.13754e-05 0.181964)
(-1.48933e-05 1.76689e-05 0.177506)
(3.28159e-05 3.94476e-05 0.222646)
(2.91955e-05 4.69341e-05 0.225763)
(2.24072e-05 5.39448e-05 0.228291)
(1.41619e-05 5.89425e-05 0.229972)
(4.85051e-06 6.15868e-05 0.230803)
(-4.8478e-06 6.15873e-05 0.230803)
(-1.41595e-05 5.89436e-05 0.229972)
(-2.24054e-05 5.39468e-05 0.228291)
(-2.91968e-05 4.69367e-05 0.225763)
(-3.28157e-05 3.94482e-05 0.222646)
(5.29006e-05 6.4225e-05 0.24366)
(4.67128e-05 7.5219e-05 0.245455)
(3.57736e-05 8.56481e-05 0.246903)
(2.25481e-05 9.30747e-05 0.247846)
(7.71312e-06 9.69959e-05 0.248305)
(-7.71066e-06 9.69963e-05 0.248305)
(-2.25457e-05 9.30757e-05 0.247846)
(-3.57714e-05 8.56506e-05 0.246903)
(-4.67144e-05 7.52222e-05 0.245455)
(-5.29005e-05 6.42262e-05 0.24366)
(7.20014e-05 8.80973e-05 0.252985)
(6.32282e-05 0.000101612 0.253866)
(4.82661e-05 0.000114716 0.254588)
(3.03276e-05 0.000124025 0.255053)
(1.03607e-05 0.000128926 0.255276)
(-1.0358e-05 0.000128926 0.255276)
(-3.03248e-05 0.000124026 0.255053)
(-4.82629e-05 0.000114718 0.254588)
(-6.32294e-05 0.000101614 0.253866)
(-7.20023e-05 8.80994e-05 0.252985)
(8.84428e-05 0.000108878 0.256778)
(7.72254e-05 0.000123578 0.257163)
(5.87317e-05 0.000138238 0.257499)
(3.67752e-05 0.000148648 0.257715)
(1.25448e-05 0.000154108 0.257817)
(-1.25422e-05 0.000154108 0.257817)
(-3.6772e-05 0.000148647 0.257715)
(-5.87275e-05 0.00013824 0.257499)
(-7.72251e-05 0.000123581 0.257163)
(-8.84436e-05 0.000108883 0.256778)
(0.000101139 0.00012505 0.258281)
(8.77137e-05 0.000139528 0.258439)
(6.64453e-05 0.000154429 0.258585)
(4.1449e-05 0.000165041 0.258679)
(1.41141e-05 0.000170593 0.258723)
(-1.41127e-05 0.000170591 0.258723)
(-4.14455e-05 0.000165038 0.258679)
(-6.64397e-05 0.000154428 0.258585)
(-8.77104e-05 0.000139531 0.258439)
(-0.000101139 0.000125064 0.258281)
(0.000109494 0.000135537 0.25886)
(9.41027e-05 0.000148466 0.258918)
(7.10082e-05 0.00016219 0.258975)
(4.41297e-05 0.00017214 0.259012)
(1.49966e-05 0.000177325 0.259029)
(-1.49989e-05 0.000177323 0.259029)
(-4.41273e-05 0.000172135 0.259012)
(-7.10017e-05 0.000162188 0.258975)
(-9.40944e-05 0.000148475 0.258918)
(-0.000109489 0.000135556 0.25886)
(0.000113151 0.000139494 0.259065)
(9.66031e-05 0.000149536 0.259081)
(7.24222e-05 0.000161034 0.259097)
(4.48959e-05 0.00016952 0.259108)
(1.521e-05 0.000174032 0.259113)
(-1.52176e-05 0.000174032 0.259113)
(-4.48979e-05 0.000169518 0.259108)
(-7.24156e-05 0.000161035 0.259097)
(-9.65856e-05 0.000149546 0.259081)
(-0.000113139 0.000139511 0.259065)
(0.000114108 0.000135541 0.259122)
(9.64342e-05 0.000142202 0.25912)
(7.19358e-05 0.000150932 0.259119)
(4.42887e-05 0.000157694 0.259118)
(1.4997e-05 0.000161284 0.259117)
(-1.50057e-05 0.000161285 0.259117)
(-4.42937e-05 0.000157698 0.259118)
(-7.19311e-05 0.000150937 0.259119)
(-9.64118e-05 0.000142216 0.25912)
(-0.000114077 0.000135533 0.259122)
(1.29874e-06 1.4919e-06 0.0863299)
(1.21362e-06 1.84291e-06 0.0901277)
(9.12529e-07 2.20062e-06 0.0932826)
(5.76859e-07 2.44517e-06 0.0954808)
(1.97931e-07 2.57355e-06 0.0966055)
(-1.96851e-07 2.57359e-06 0.0966055)
(-5.76021e-07 2.4453e-06 0.0954808)
(-9.12177e-07 2.20089e-06 0.0932826)
(-1.21475e-06 1.84272e-06 0.0901277)
(-1.29953e-06 1.49146e-06 0.0863299)
(6.84397e-06 8.11196e-06 0.177457)
(6.17301e-06 9.81091e-06 0.181913)
(4.7366e-06 1.14175e-05 0.185555)
(3.00176e-06 1.25587e-05 0.18803)
(1.02993e-06 1.31634e-05 0.189274)
(-1.02788e-06 1.31635e-05 0.189274)
(-3.00001e-06 1.25589e-05 0.18803)
(-4.73557e-06 1.14177e-05 0.185555)
(-6.17384e-06 9.81048e-06 0.181913)
(-6.84291e-06 8.1117e-06 0.177457)
(1.51097e-05 1.81536e-05 0.222589)
(1.34552e-05 2.15998e-05 0.225706)
(1.03356e-05 2.48268e-05 0.228235)
(6.53658e-06 2.71309e-05 0.229916)
(2.23977e-06 2.83513e-05 0.230747)
(-2.23785e-06 2.83516e-05 0.230747)
(-6.53517e-06 2.71318e-05 0.229916)
(-1.03352e-05 2.48281e-05 0.228235)
(-1.34569e-05 2.15998e-05 0.225706)
(-1.51085e-05 1.8153e-05 0.222589)
(2.44247e-05 2.96447e-05 0.243607)
(2.15851e-05 3.47327e-05 0.245404)
(1.65438e-05 3.95592e-05 0.246853)
(1.04342e-05 4.30012e-05 0.247798)
(3.57078e-06 4.48208e-05 0.248257)
(-3.56884e-06 4.48215e-05 0.248257)
(-1.0433e-05 4.30032e-05 0.247798)
(-1.65442e-05 3.95618e-05 0.246853)
(-2.1588e-05 3.47334e-05 0.245404)
(-2.44227e-05 2.96435e-05 0.243607)
(3.33687e-05 4.08226e-05 0.252945)
(2.93272e-05 4.71182e-05 0.253829)
(2.24087e-05 5.32233e-05 0.254554)
(1.4091e-05 5.75683e-05 0.255021)
(4.81624e-06 5.98585e-05 0.255245)
(-4.81372e-06 5.98594e-05 0.255245)
(-1.40895e-05 5.75709e-05 0.255021)
(-2.24096e-05 5.32268e-05 0.254554)
(-2.93319e-05 4.7119e-05 0.253829)
(-3.33669e-05 4.08207e-05 0.252945)
(4.11685e-05 5.0681e-05 0.256756)