/*--------------------------------*- C++ -*----------------------------------*\
| =========                 |                                                 |
| \\      /  F ield         | OpenFOAM: The Open Source CFD Toolbox           |
|  \\    /   O peration     | Version:  2106                                  |
|   \\  /    A nd           | Website:  www.openfoam.com                      |
|    \\/     M anipulation  |                                                 |
\*---------------------------------------------------------------------------*/
FoamFile
{
    version     2.0;
    format      ascii;
    arch        "LSB;label=32;scalar=64";
    class       volVectorField;
    location    "0.87";
    object      U;
}
// * * * * * * * * * * * * * * * * * * * * * * * * * * * * * * * * * * * * * //

dimensions      [0 1 -1 0 0 0 0];

internalField   nonuniform List<vector> 
10000
(
(0.0630547 0.0742998 0.34785)
(0.0537782 0.0844992 0.362445)
(0.0401624 0.0937223 0.373899)
(0.0249152 0.100155 0.38181)
(0.00844366 0.10348 0.38583)
(-0.00844367 0.10348 0.38583)
(-0.0249152 0.100155 0.38181)
(-0.0401624 0.0937223 0.373899)
(-0.0537782 0.0844992 0.362445)
(-0.0630547 0.0742997 0.34785)
(0.173412 0.205734 0.733606)
(0.146382 0.23319 0.753409)
(0.109283 0.257339 0.768163)
(0.0676137 0.274055 0.778138)
(0.022887 0.282677 0.783125)
(-0.0228871 0.282677 0.783125)
(-0.0676137 0.274055 0.778138)
(-0.109283 0.257339 0.768163)
(-0.146382 0.23319 0.753409)
(-0.173412 0.205734 0.733606)
(0.224381 0.266432 0.931051)
(0.187286 0.298389 0.947001)
(0.138928 0.326294 0.95815)
(0.0855299 0.345385 0.96551)
(0.0288805 0.355167 0.96912)
(-0.0288805 0.355167 0.96912)
(-0.0855299 0.345385 0.96551)
(-0.138928 0.326294 0.95815)
(-0.187286 0.298389 0.947001)
(-0.224381 0.266432 0.931051)
(0.239517 0.283947 1.03094)
(0.197961 0.314059 1.04152)
(0.145939 0.340407 1.04824)
(0.0894307 0.35823 1.05254)
(0.0301293 0.367303 1.05458)
(-0.0301293 0.367303 1.05458)
(-0.0894307 0.35823 1.05254)
(-0.145939 0.340407 1.04824)
(-0.197961 0.314059 1.04152)
(-0.239517 0.283947 1.03094)
(0.237563 0.28113 1.07966)
(0.194734 0.307332 1.08566)
(0.142805 0.330397 1.08881)
(0.0871591 0.345864 1.0907)
(0.0293074 0.353691 1.09156)
(-0.0293075 0.353691 1.09156)
(-0.0871592 0.345864 1.0907)
(-0.142805 0.330397 1.08881)
(-0.194734 0.307332 1.08566)
(-0.237563 0.28113 1.07966)
(0.22647 0.267515 1.1009)
(0.184236 0.289088 1.1035)
(0.134467 0.308232 1.10415)
(0.0817674 0.320996 1.1044)
(0.0274461 0.327417 1.10445)
(-0.0274462 0.327417 1.10445)
(-0.0817675 0.320996 1.1044)
(-0.134467 0.308232 1.10415)
(-0.184236 0.289088 1.1035)
(-0.22647 0.267515 1.1009)
(0.210008 0.247436 1.10756)
(0.169551 0.26414 1.10784)
(0.123194 0.27911 1.10691)
(0.07465 0.289073 1.10615)
(0.0250151 0.294063 1.10571)
(-0.0250152 0.294063 1.10571)
(-0.0746501 0.289073 1.10615)
(-0.123194 0.27911 1.10691)
(-0.169551 0.26414 1.10784)
(-0.210008 0.247436 1.10756)
(0.190524 0.223639 1.10686)
(0.152636 0.235518 1.10567)
(0.110436 0.246303 1.10386)
(0.0667015 0.253515 1.10254)
(0.0223162 0.257128 1.10185)
(-0.0223164 0.257128 1.10185)
(-0.0667016 0.253515 1.10254)
(-0.110436 0.246303 1.10386)
(-0.152636 0.235518 1.10567)
(-0.190524 0.223639 1.10686)
(0.169564 0.197925 1.10284)
(0.134874 0.205167 1.10076)
(0.09719 0.211894 1.09853)
(0.0585175 0.216524 1.09697)
(0.0195483 0.218863 1.09618)
(-0.0195484 0.218863 1.09618)
(-0.0585176 0.216524 1.09697)
(-0.0971901 0.211894 1.09853)
(-0.134874 0.205167 1.10076)
(-0.169564 0.197925 1.10284)
(0.148298 0.171958 1.09775)
(0.117475 0.173064 1.09521)
(0.0840662 0.176366 1.09283)
(0.0504291 0.178773 1.09123)
(0.0168164 0.18001 1.09042)
(-0.0168166 0.18001 1.09042)
(-0.0504293 0.178773 1.09123)
(-0.0840664 0.176366 1.09283)
(-0.117475 0.173064 1.09521)
(-0.148298 0.171958 1.09775)
(0.0112848 0.014415 0.268642)
(0.00948079 0.017732 0.281002)
(0.0071588 0.0203965 0.291123)
(0.00453173 0.0222232 0.298168)
(0.00155053 0.023175 0.301774)
(-0.00155055 0.023175 0.301774)
(-0.00453175 0.0222232 0.298168)
(-0.00715881 0.0203965 0.291123)
(-0.0094808 0.017732 0.281002)
(-0.0112848 0.014415 0.268642)
(0.0548519 0.0663681 0.634513)
(0.047101 0.0798494 0.656631)
(0.0360477 0.0914012 0.674369)
(0.0227895 0.0995865 0.686568)
(0.00779877 0.103883 0.69276)
(-0.00779882 0.103883 0.69276)
(-0.0227896 0.0995865 0.686568)
(-0.0360477 0.0914012 0.674369)
(-0.047101 0.0798494 0.656631)
(-0.054852 0.0663681 0.634513)
(0.0985652 0.117729 0.883423)
(0.0840939 0.139237 0.907432)
(0.0640207 0.157695 0.926264)
(0.0402319 0.170722 0.939059)
(0.0137269 0.177525 0.945502)
(-0.0137269 0.177525 0.945502)
(-0.0402319 0.170722 0.939059)
(-0.0640207 0.157695 0.926264)
(-0.0840939 0.139237 0.907432)
(-0.0985652 0.117729 0.883423)
(0.134935 0.159984 1.0525)
(0.114147 0.186325 1.07467)
(0.086342 0.208822 1.09164)
(0.0539517 0.224586 1.10302)
(0.0183558 0.232774 1.10871)
(-0.0183559 0.232774 1.10871)
(-0.0539518 0.224586 1.10302)
(-0.0863422 0.208822 1.09164)
(-0.114147 0.186325 1.07467)
(-0.134935 0.159984 1.0525)
(0.160977 0.189776 1.16642)
(0.135013 0.217867 1.18518)
(0.101486 0.241699 1.19916)
(0.0630885 0.258278 1.20842)
(0.0214093 0.266842 1.213)
(-0.0214095 0.266842 1.213)
(-0.0630887 0.258278 1.20842)
(-0.101486 0.241699 1.19916)
(-0.135013 0.217867 1.18518)
(-0.160977 0.189776 1.16642)
(0.176736 0.207278 1.24205)
(0.146978 0.234614 1.25698)
(0.109815 0.257604 1.26778)
(0.0679406 0.27349 1.27483)
(0.0230011 0.281652 1.27829)
(-0.0230013 0.281652 1.27829)
(-0.0679407 0.27349 1.27483)
(-0.109815 0.257604 1.26778)
(-0.146979 0.234614 1.25698)
(-0.176736 0.207278 1.24205)
(0.18328 0.213845 1.29129)
(0.15112 0.238511 1.30261)
(0.112249 0.259012 1.31052)
(0.0691332 0.273093 1.3156)
(0.0233524 0.280294 1.31806)
(-0.0233526 0.280294 1.31806)
(-0.0691334 0.273093 1.3156)
(-0.112249 0.259012 1.31052)
(-0.15112 0.238511 1.30261)
(-0.18328 0.213845 1.29129)
(0.18196 0.21112 1.32257)
(0.148734 0.231724 1.33077)
(0.10985 0.248573 1.33628)
(0.067368 0.260091 1.33975)
(0.0227078 0.265962 1.34141)
(-0.0227081 0.265962 1.34141)
(-0.0673682 0.260091 1.33975)
(-0.10985 0.248573 1.33628)
(-0.148734 0.231724 1.33077)
(-0.18196 0.21112 1.32257)
(0.174244 0.200789 1.34176)
(0.141248 0.216393 1.34745)
(0.103732 0.228791 1.35111)
(0.0633439 0.237285 1.35335)
(0.0213061 0.241611 1.3544)
(-0.0213064 0.241611 1.3544)
(-0.0633442 0.237285 1.35335)
(-0.103732 0.228791 1.35111)
(-0.141248 0.216393 1.34745)
(-0.174244 0.200789 1.34176)
(0.161713 0.185682 1.35301)
(0.13022 0.193674 1.35685)
(0.0948498 0.201271 1.35914)
(0.0576288 0.206511 1.36046)
(0.0193363 0.209177 1.36106)
(-0.0193366 0.209177 1.36106)
(-0.0576291 0.206511 1.36046)
(-0.0948501 0.201271 1.35914)
(-0.13022 0.193674 1.35685)
(-0.161713 0.185682 1.35301)
(0.00113119 0.00126332 0.158884)
(0.00114239 0.00161327 0.167249)
(0.000890542 0.00202478 0.174235)
(0.000596117 0.00232958 0.17918)
(0.000207721 0.00249849 0.181739)
(-0.000207738 0.00249849 0.181739)
(-0.000596134 0.00232958 0.17918)
(-0.000890558 0.00202477 0.174235)
(-0.00114241 0.00161327 0.167249)
(-0.0011312 0.00126331 0.158884)
(0.0181649 0.0210782 0.44513)
(0.0163357 0.0257154 0.465493)
(0.012785 0.0300791 0.482216)
(0.00821131 0.0333022 0.493953)
(0.00282945 0.0350336 0.499994)
(-0.0028295 0.0350336 0.499994)
(-0.00821137 0.0333022 0.493953)
(-0.0127851 0.0300791 0.482216)
(-0.0163357 0.0257154 0.465493)
(-0.0181649 0.0210782 0.44513)
(0.0414064 0.0481964 0.69063)
(0.0365703 0.0579043 0.718425)
(0.0284112 0.0667591 0.740887)
(0.0180983 0.073234 0.756522)
(0.00621397 0.0766821 0.764528)
(-0.00621406 0.0766821 0.764528)
(-0.0180984 0.0732339 0.756522)
(-0.0284113 0.0667591 0.740887)
(-0.0365704 0.0579043 0.718425)
(-0.0414065 0.0481964 0.69063)
(0.0664823 0.077446 0.894845)
(0.0579483 0.0917412 0.92627)
(0.0446875 0.104531 0.951244)
(0.0282844 0.113785 0.96848)
(0.00968193 0.118677 0.977262)
(-0.00968207 0.118677 0.977262)
(-0.0282846 0.113785 0.96848)
(-0.0446877 0.104531 0.951244)
(-0.0579484 0.0917412 0.92627)
(-0.0664824 0.0774459 0.894845)
(0.0888845 0.103424 1.06123)
(0.0765961 0.120827 1.09348)
(0.0586494 0.136168 1.11868)
(0.036913 0.14716 1.13592)
(0.0126012 0.152935 1.14466)
(-0.0126014 0.152935 1.14466)
(-0.0369131 0.14716 1.13592)
(-0.0586495 0.136168 1.11868)
(-0.0765963 0.120827 1.09348)
(-0.0888846 0.103424 1.06123)
(0.106352 0.12343 1.19474)
(0.0906886 0.142176 1.22591)
(0.0689652 0.158474 1.24985)
(0.0431798 0.170049 1.2661)
(0.0147032 0.176093 1.2743)
(-0.0147034 0.176093 1.2743)
(-0.04318 0.170049 1.2661)
(-0.0689654 0.158474 1.24985)
(-0.0906888 0.142175 1.22591)
(-0.106352 0.12343 1.19474)
(0.118029 0.136488 1.30053)
(0.099624 0.154876 1.32947)
(0.0752522 0.170625 1.35133)
(0.0468817 0.181721 1.36605)
(0.0159248 0.187483 1.37344)
(-0.015925 0.187483 1.37344)
(-0.046882 0.181721 1.36605)
(-0.0752525 0.170625 1.35133)
(-0.0996242 0.154875 1.32947)
(-0.118029 0.136488 1.30053)
(0.123788 0.142486 1.38342)
(0.103435 0.159027 1.40953)
(0.0776129 0.172945 1.42896)
(0.0481175 0.182677 1.44194)
(0.0163052 0.187707 1.44843)
(-0.0163055 0.187707 1.44843)
(-0.0481178 0.182677 1.44194)
(-0.0776132 0.172945 1.42896)
(-0.103435 0.159027 1.40953)
(-0.123788 0.142486 1.38342)
(0.124032 0.141866 1.44755)
(0.102618 0.155371 1.47072)
(0.0764657 0.166404 1.4877)
(0.0471625 0.174086 1.49893)
(0.0159407 0.17804 1.50451)
(-0.015941 0.17804 1.50451)
(-0.0471628 0.174086 1.49893)
(-0.076466 0.166404 1.4877)
(-0.102618 0.155371 1.47072)
(-0.124032 0.141866 1.44755)
(0.119585 0.136455 1.49631)
(0.0979734 0.144572 1.51703)
(0.072286 0.151914 1.53165)
(0.0443079 0.157 1.54119)
(0.0149303 0.159602 1.54588)
(-0.0149306 0.159602 1.54588)
(-0.0443083 0.157 1.54119)
(-0.0722863 0.151914 1.53165)
(-0.0979737 0.144572 1.51703)
(-0.119586 0.136455 1.49631)
(0.000719104 0.000944382 0.138977)
(0.000562118 0.00118412 0.145838)
(0.000384996 0.00135414 0.151424)
(0.000238777 0.00145479 0.155345)
(7.99596e-05 0.00150517 0.157368)
(-7.99763e-05 0.00150517 0.157368)
(-0.000238793 0.00145478 0.155345)
(-0.000385011 0.00135414 0.151423)
(-0.000562132 0.00118411 0.145838)
(-0.000719115 0.000944373 0.138977)
(0.00710011 0.00848944 0.398512)
(0.00616573 0.010464 0.416719)
(0.00474155 0.0121727 0.431459)
(0.00302517 0.0133995 0.441776)
(0.00103896 0.0140522 0.447085)
(-0.00103901 0.0140522 0.447085)
(-0.00302523 0.0133995 0.441776)
(-0.00474159 0.0121727 0.431459)
(-0.00616577 0.010464 0.416719)
(-0.00710015 0.00848942 0.398512)
(0.0174143 0.0205613 0.633476)
(0.015192 0.0250349 0.660355)
(0.0117579 0.0289612 0.681947)
(0.00749093 0.0318119 0.696997)
(0.00257256 0.0333285 0.704721)
(-0.00257265 0.0333285 0.704721)
(-0.00749102 0.0318119 0.696997)
(-0.0117579 0.0289612 0.681947)
(-0.0151921 0.0250349 0.660355)
(-0.0174144 0.0205613 0.633476)
(0.0298798 0.03508 0.841938)
(0.0259818 0.042202 0.874785)
(0.0200826 0.048452 0.900923)
(0.012754 0.0529852 0.919051)
(0.00437386 0.0553894 0.928327)
(-0.004374 0.0553894 0.928327)
(-0.0127541 0.0529852 0.919051)
(-0.0200827 0.0484519 0.900922)
(-0.025982 0.0422019 0.874784)
(-0.0298799 0.03508 0.841938)
(0.0424285 0.0495904 1.02385)
(0.0366661 0.0589057 1.06023)
(0.0282272 0.0670341 1.08887)
(0.0178556 0.0729005 1.10863)
(0.00611176 0.0759986 1.1187)
(-0.00611194 0.0759985 1.1187)
(-0.0178557 0.0729005 1.10863)
(-0.0282273 0.0670341 1.08887)
(-0.0366662 0.0589056 1.06023)
(-0.0424286 0.0495903 1.02385)
(0.0535564 0.0623196 1.18039)
(0.0459316 0.0730231 1.21825)
(0.0351739 0.0822757 1.24773)
(0.0221526 0.0889093 1.26795)
(0.00756632 0.0923956 1.27823)
(-0.00756654 0.0923956 1.27823)
(-0.0221528 0.0889093 1.26795)
(-0.0351741 0.0822757 1.24773)
(-0.0459318 0.073023 1.21825)
(-0.0535565 0.0623196 1.18039)
(0.0622693 0.0721177 1.31337)
(0.0529488 0.0832474 1.35109)
(0.040305 0.0927464 1.38014)
(0.0252666 0.099506 1.39996)
(0.00861014 0.103041 1.41)
(-0.0086104 0.103041 1.41)
(-0.0252668 0.099506 1.39996)
(-0.0403052 0.0927463 1.38014)
(-0.052949 0.0832473 1.35109)
(-0.0622695 0.0721177 1.31337)
(0.0679703 0.0782967 1.42484)
(0.0572663 0.0888698 1.46124)
(0.0433115 0.0977461 1.48898)
(0.0270199 0.104011 1.50779)
(0.00918526 0.107271 1.51729)
(-0.00918556 0.107271 1.51729)
(-0.0270202 0.104011 1.50779)
(-0.0433118 0.0977461 1.48898)
(-0.0572665 0.0888698 1.46124)
(-0.0679705 0.0782966 1.42484)
(0.0704621 0.0805905 1.51679)
(0.0587996 0.0897202 1.5512)
(0.0441551 0.0971696 1.5771)
(0.0273974 0.10239 1.59452)
(0.00928824 0.10509 1.60326)
(-0.00928857 0.10509 1.60326)
(-0.0273978 0.10239 1.59452)
(-0.0441554 0.0971696 1.5771)
(-0.0587999 0.0897202 1.5512)
(-0.0704624 0.0805905 1.51679)
(0.0699266 0.0797948 1.59093)
(0.0577405 0.0858623 1.62361)
(0.0429184 0.0911356 1.6473)
(0.0264529 0.0947959 1.66301)
(0.00893829 0.0966747 1.67083)
(-0.00893864 0.0966747 1.67083)
(-0.0264533 0.0947959 1.66301)
(-0.0429187 0.0911356 1.6473)
(-0.0577408 0.0858623 1.62361)
(-0.0699269 0.0797947 1.59093)
(0.000131643 0.000144012 0.127959)
(0.00012193 0.000188749 0.13435)
(9.00958e-05 0.000234569 0.139546)
(6.16318e-05 0.000266685 0.143199)
(2.1285e-05 0.000284894 0.145084)
(-2.12993e-05 0.000284893 0.145084)
(-6.16457e-05 0.000266682 0.143199)
(-9.01086e-05 0.000234564 0.139546)
(-0.000121942 0.000188742 0.13435)
(-0.000131653 0.000144004 0.127959)
(0.00253366 0.00293072 0.371085)
(0.00226621 0.00363324 0.388468)
(0.00177508 0.00428025 0.402551)
(0.00114726 0.00476166 0.412433)
(0.000396142 0.00502297 0.417525)
(-0.000396188 0.00502297 0.417525)
(-0.00114731 0.00476165 0.412433)
(-0.00177512 0.00428024 0.402551)
(-0.00226625 0.00363323 0.388468)
(-0.00253369 0.0029307 0.371085)
(0.00690169 0.00800658 0.596497)
(0.00613187 0.00981539 0.622883)
(0.00480638 0.011458 0.644145)
(0.00308879 0.0126801 0.659023)
(0.00106494 0.0133388 0.666678)
(-0.00106502 0.0133388 0.666678)
(-0.00308886 0.0126801 0.659023)
(-0.00480645 0.011458 0.644145)
(-0.00613194 0.00981536 0.622883)
(-0.00690175 0.00800655 0.596496)
(0.0126671 0.0146973 0.802679)
(0.0111807 0.0178216 0.835991)
(0.00873846 0.0206325 0.862649)
(0.00559186 0.0227132 0.88124)
(0.00192461 0.023829 0.890783)
(-0.00192473 0.023829 0.890783)
(-0.00559197 0.0227131 0.88124)
(-0.00873856 0.0206324 0.862649)
(-0.0111808 0.0178215 0.835991)
(-0.0126672 0.0146973 0.802679)
(0.0189471 0.0219482 0.98889)
(0.016603 0.0263012 1.0271)
(0.0129184 0.0301814 1.05743)
(0.00823191 0.0330346 1.0785)
(0.00282776 0.0345572 1.08929)
(-0.00282792 0.0345572 1.08929)
(-0.00823206 0.0330346 1.0785)
(-0.0129186 0.0301814 1.05743)
(-0.0166032 0.0263012 1.0271)
(-0.0189472 0.0219482 0.98889)
(0.024965 0.0288376 1.155)
(0.021703 0.0341091 1.19622)
(0.0167953 0.0387578 1.22866)
(0.0106551 0.0421506 1.25109)
(0.00365234 0.0439519 1.26255)
(-0.00365253 0.0439519 1.26255)
(-0.0106552 0.0421506 1.25109)
(-0.0167955 0.0387578 1.22866)
(-0.0217032 0.0341091 1.19622)
(-0.0249651 0.0288376 1.155)
(0.0300998 0.034638 1.30133)
(0.0259402 0.040373 1.34388)
(0.019952 0.0453649 1.37706)
(0.0125982 0.0489785 1.39991)
(0.00430841 0.0508867 1.41155)
(-0.00430864 0.0508867 1.41155)
(-0.0125984 0.0489785 1.39991)
(-0.0199522 0.0453648 1.37706)
(-0.0259404 0.040373 1.34388)
(-0.0300999 0.034638 1.30133)
(0.0338934 0.0388129 1.42842)
(0.0289375 0.0444863 1.47091)
(0.0221089 0.0493451 1.50374)
(0.0138898 0.0528301 1.52623)
(0.00473808 0.0546597 1.53765)
(-0.00473835 0.0546597 1.53765)
(-0.01389 0.0528301 1.52623)
(-0.0221091 0.0493451 1.50374)
(-0.0289377 0.0444863 1.47091)
(-0.0338936 0.0388129 1.42842)
(0.036099 0.0410534 1.53685)
(0.0305125 0.0461488 1.57832)
(0.0231331 0.0503889 1.61001)
(0.0144482 0.0534 1.63153)
(0.00491395 0.0549696 1.6424)
(-0.00491424 0.0549696 1.6424)
(-0.0144485 0.0534 1.63153)
(-0.0231333 0.0503889 1.61001)
(-0.0305127 0.0461488 1.57832)
(-0.0360992 0.0410534 1.53685)
(0.0366874 0.0416693 1.62702)
(0.0306309 0.0452706 1.66762)
(0.022964 0.048386 1.69747)
(0.0142368 0.0505666 1.71747)
(0.00482413 0.0516921 1.72748)
(-0.00482444 0.0516921 1.72748)
(-0.0142371 0.0505666 1.71747)
(-0.0229643 0.048386 1.69747)
(-0.0306311 0.0452706 1.66762)
(-0.0366877 0.0416693 1.62702)
(8.02935e-05 0.000108349 0.124968)
(5.6238e-05 0.000137444 0.131159)
(3.44946e-05 0.000154302 0.13616)
(2.11079e-05 0.000162641 0.13967)
(6.85783e-06 0.000166635 0.14148)
(-6.86934e-06 0.000166634 0.14148)
(-2.11193e-05 0.000162638 0.13967)
(-3.45048e-05 0.000154298 0.13616)
(-5.62474e-05 0.000137439 0.131159)
(-8.03015e-05 0.000108342 0.124968)
(0.00104862 0.00125221 0.36252)
(0.000900818 0.00155314 0.379454)
(0.000688967 0.00180643 0.393115)
(0.000440009 0.00198828 0.402691)
(0.000151034 0.00208553 0.407624)
(-0.000151072 0.00208552 0.407624)
(-0.000440046 0.00198827 0.402691)
(-0.000689001 0.00180642 0.393115)
(-0.000900849 0.00155312 0.379454)
(-0.00104865 0.00125219 0.362519)
(0.00289011 0.00340174 0.583982)
(0.00252417 0.00418426 0.609935)
(0.00195991 0.0048671 0.630795)
(0.00125401 0.00536834 0.64539)
(0.000431486 0.00563721 0.652899)
(-0.000431553 0.0056372 0.652899)
(-0.00125408 0.00536833 0.64539)
(-0.00195997 0.00486708 0.630795)
(-0.00252422 0.00418424 0.609934)
(-0.00289015 0.00340172 0.583982)
(0.00541763 0.0063373 0.788625)
(0.0047449 0.00772601 0.821824)
(0.00369554 0.00895 0.848372)
(0.00236238 0.00985206 0.866903)
(0.000812798 0.0103354 0.876422)
(-0.000812894 0.0103354 0.876422)
(-0.00236247 0.00985205 0.866902)
(-0.00369563 0.00894998 0.848372)
(-0.00474498 0.00772598 0.821823)
(-0.0054177 0.00633727 0.788625)
(0.00830312 0.00966779 0.975948)
(0.0072557 0.011665 1.01463)
(0.005644 0.0134257 1.04536)
(0.00359943 0.0147207 1.06675)
(0.00123713 0.0154126 1.07772)
(-0.00123726 0.0154126 1.07772)
(-0.00359956 0.0147207 1.06675)
(-0.00564412 0.0134257 1.04536)
(-0.00725581 0.011665 1.01462)
(-0.00830321 0.00966776 0.975948)
(0.0112123 0.0129974 1.14568)
(0.0097494 0.0154948 1.18812)
(0.00755726 0.0176846 1.2216)
(0.00480367 0.0192871 1.24483)
(0.0016484 0.02014 1.25672)
(-0.00164856 0.02014 1.25672)
(-0.00480383 0.0192871 1.24483)
(-0.0075574 0.0176846 1.2216)
(-0.00974953 0.0154948 1.18812)
(-0.0112124 0.0129974 1.14568)
(0.0138364 0.0159641 1.29772)
(0.0119495 0.0187665 1.3423)
(0.00921697 0.0211997 1.37722)
(0.00583503 0.0229683 1.40135)
(0.0019983 0.0239052 1.41368)
(-0.00199849 0.0239051 1.41367)
(-0.00583522 0.0229683 1.40135)
(-0.00921715 0.0211997 1.37722)
(-0.0119497 0.0187664 1.3423)
(-0.0138365 0.0159641 1.29771)
(0.0159148 0.0182609 1.43205)
(0.013633 0.021117 1.47734)
(0.0104524 0.0235627 1.51255)
(0.00658615 0.0253249 1.53677)
(0.00225015 0.026253 1.5491)
(-0.00225037 0.026253 1.5491)
(-0.00658636 0.0253249 1.53677)
(-0.0104526 0.0235627 1.51255)
(-0.0136332 0.0211169 1.47734)
(-0.0159149 0.0182609 1.43205)
(0.0172753 0.0196728 1.54858)
(0.0146609 0.0223162 1.59356)
(0.0111575 0.0245198 1.62815)
(0.00699003 0.026091 1.65175)
(0.00238109 0.0269122 1.6637)
(-0.00238133 0.0269122 1.6637)
(-0.00699026 0.0260909 1.65175)
(-0.0111578 0.0245198 1.62815)
(-0.0146611 0.0223162 1.59356)
(-0.0172755 0.0196728 1.54858)
(0.017853 0.0203004 1.64702)
(0.0149651 0.0222518 1.69178)
(0.0112632 0.0239253 1.72491)
(0.00700354 0.0251 1.7472)
(0.0023767 0.0257076 1.7584)
(-0.00237695 0.0257076 1.7584)
(-0.00700378 0.0251 1.7472)
(-0.0112634 0.0239253 1.72491)
(-0.0149653 0.0222519 1.69178)
(-0.0178532 0.0203004 1.64702)
(1.23799e-05 1.52377e-05 0.123457)
(8.42799e-06 2.08201e-05 0.12958)
(4.73177e-06 2.44839e-05 0.134523)
(3.48504e-06 2.6585e-05 0.137994)
(1.16876e-06 2.78051e-05 0.139783)
(-1.17753e-06 2.78044e-05 0.139783)
(-3.49358e-06 2.6583e-05 0.137994)
(-4.7397e-06 2.44808e-05 0.134523)
(-8.43529e-06 2.08159e-05 0.12958)
(-1.2386e-05 1.52327e-05 0.123457)
(0.000364607 0.000426057 0.358251)
(0.000318311 0.00053182 0.375014)
(0.000246557 0.000624081 0.388529)
(0.000159166 0.000692258 0.398006)
(5.48909e-05 0.000729307 0.402889)
(-5.49198e-05 0.000729306 0.402889)
(-0.000159194 0.000692253 0.398006)
(-0.000246583 0.000624072 0.388529)
(-0.000318335 0.000531808 0.375014)
(-0.000364627 0.000426043 0.358251)
(0.00108882 0.00126687 0.577604)
(0.000960386 0.00156696 0.603368)
(0.000751796 0.00183391 0.624074)
(0.000483999 0.00203329 0.63857)
(0.000167012 0.00214123 0.646029)
(-0.000167063 0.00214123 0.646029)
(-0.000484049 0.00203329 0.63857)
(-0.000751843 0.00183389 0.624074)
(-0.000960429 0.00156695 0.603367)
(-0.00108886 0.00126685 0.577604)
(0.00213495 0.00247751 0.781112)
(0.00188518 0.00303756 0.814229)
(0.0014784 0.00353807 0.840727)
(0.000949821 0.00391201 0.859237)
(0.000327582 0.00411387 0.868751)
(-0.000327657 0.00411387 0.868751)
(-0.000949894 0.003912 0.859237)
(-0.00147847 0.00353806 0.840726)
(-0.00188524 0.00303754 0.814229)
(-0.002135 0.00247749 0.781112)
(0.00338102 0.00391171 0.968449)
(0.00297766 0.00474814 1.00728)
(0.00233158 0.00549449 1.03817)
(0.00149404 0.0060502 1.0597)
(0.000514699 0.00634917 1.07075)
(-0.000514798 0.00634917 1.07075)
(-0.00149414 0.00605019 1.0597)
(-0.00233167 0.00549448 1.03817)
(-0.00297774 0.00474812 1.00728)
(-0.00338109 0.00391168 0.968449)
(0.00468861 0.00540507 1.13937)
(0.0041092 0.00648434 1.18229)
(0.00320645 0.00744177 1.21623)
(0.00204784 0.00815071 1.23981)
(0.00070437 0.00853056 1.25189)
(-0.000704494 0.00853056 1.25189)
(-0.00204796 0.0081507 1.23981)
(-0.00320657 0.00744175 1.21623)
(-0.00410931 0.00648432 1.18229)
(-0.00468869 0.00540504 1.13937)
(0.00591812 0.00679347 1.29366)
(0.00515274 0.00803813 1.33912)
(0.00400121 0.00913174 1.37482)
(0.00254519 0.00993571 1.39955)
(0.00087369 0.0103644 1.41219)
(-0.000873838 0.0103644 1.41219)
(-0.00254533 0.0099357 1.39955)
(-0.00400134 0.00913172 1.37482)
(-0.00515286 0.00803811 1.33912)
(-0.00591822 0.00679345 1.29366)
(0.00694205 0.00792646 1.4311)
(0.00599637 0.00922687 1.47768)
(0.00462829 0.010354 1.514)
(0.00293008 0.0111749 1.53906)
(0.00100337 0.0116099 1.55183)
(-0.00100354 0.0116099 1.55183)
(-0.00293024 0.0111749 1.53906)
(-0.00462844 0.010354 1.514)
(-0.00599651 0.00922685 1.47768)
(-0.00694217 0.00792644 1.4311)
(0.00766802 0.0086902 1.55133)
(0.00656115 0.00992317 1.59797)
(0.00502537 0.0109629 1.63398)
(0.00316235 0.0117109 1.65862)
(0.00107956 0.0121039 1.67111)
(-0.00107974 0.0121039 1.67111)
(-0.00316253 0.0117109 1.65862)
(-0.00502555 0.0109629 1.63398)
(-0.00656131 0.00992316 1.59797)
(-0.00766816 0.00869019 1.55133)
(0.00804904 0.00911764 1.65371)
(0.00679538 0.0100595 1.70051)
(0.00514425 0.0108658 1.73528)
(0.00321146 0.0114351 1.75875)
(0.00109192 0.0117307 1.77055)
(-0.00109211 0.0117307 1.77055)
(-0.00321165 0.0114351 1.75875)
(-0.00514444 0.0108658 1.73528)
(-0.00679554 0.0100595 1.70051)
(-0.00804919 0.00911763 1.65371)
(7.8151e-06 1.24346e-05 0.123057)
(3.23881e-06 1.62202e-05 0.129153)
(6.36129e-07 1.73428e-05 0.134069)
(1.51229e-07 1.7368e-05 0.13752)
(-3.13476e-08 1.72777e-05 0.139299)
(2.49235e-08 1.72773e-05 0.139299)
(-1.57466e-07 1.73666e-05 0.13752)
(-6.4193e-07 1.73406e-05 0.134069)
(-3.24423e-06 1.62171e-05 0.129153)
(-7.81953e-06 1.24308e-05 0.123057)
(0.000140131 0.000170283 0.356945)
(0.000116158 0.00021291 0.373629)
(8.7057e-05 0.000246471 0.38707)
(5.52335e-05 0.000270101 0.396493)
(1.88854e-05 0.000282669 0.401346)
(-1.89066e-05 0.000282667 0.401346)
(-5.52541e-05 0.000270097 0.396493)
(-8.70763e-05 0.000246465 0.387069)
(-0.000116176 0.000212901 0.373629)
(-0.000140146 0.000170273 0.356945)
(0.00042144 0.000498689 0.575506)
(0.000363938 0.000618713 0.60117)
(0.000281288 0.000720976 0.621785)
(0.000179904 0.000796085 0.636215)
(6.1886e-05 0.000836447 0.64364)
(-6.19238e-05 0.000836445 0.64364)
(-0.000179941 0.000796079 0.636214)
(-0.000281322 0.000720967 0.621785)
(-0.00036397 0.0006187 0.60117)
(-0.000421467 0.000498674 0.575506)
(0.000838736 0.000982214 0.778525)
(0.000733049 0.0012094 0.811575)
(0.000571602 0.00140797 0.838009)
(0.00036627 0.00155533 0.856478)
(0.000126173 0.00163467 0.865971)
(-0.000126229 0.00163467 0.865971)
(-0.000366324 0.00155532 0.856478)
(-0.000571652 0.00140796 0.838009)
(-0.000733095 0.00120939 0.811574)
(-0.000838776 0.000982195 0.778525)
(0.00135142 0.0015723 0.965801)
(0.00118437 0.00191835 1.00465)
(0.000925333 0.00222332 1.03556)
(0.000592568 0.00244991 1.05711)
(0.000204097 0.00257178 1.06817)
(-0.000204171 0.00257178 1.06817)
(-0.00059264 0.0024499 1.05711)
(-0.000925401 0.00222331 1.03556)
(-0.00118443 0.00191833 1.00465)
(-0.00135147 0.00157228 0.965801)
(0.00190692 0.00220667 1.13714)
(0.00166821 0.00266259 1.18022)
(0.00130144 0.0030642 1.2143)
(0.000831629 0.00336168 1.238)
(0.000286142 0.00352122 1.25015)
(-0.000286234 0.00352121 1.25015)
(-0.000831719 0.00336167 1.238)
(-0.00130153 0.00306419 1.2143)
(-0.00166829 0.00266258 1.18022)
(-0.00190698 0.00220665 1.13714)
(0.00244684 0.00281665 1.29233)
(0.00213057 0.00335335 1.33813)
(0.00165609 0.00382315 1.37413)
(0.00105475 0.00416908 1.39909)
(0.00036231 0.0043538 1.41185)
(-0.00036242 0.0043538 1.41185)
(-0.00105486 0.00416908 1.39909)
(-0.00165619 0.00382314 1.37413)
(-0.00213066 0.00335334 1.33813)
(-0.00244692 0.00281663 1.29233)
(0.00291364 0.00333409 1.43109)
(0.00252002 0.00390617 1.4782)
(0.00194847 0.00440126 1.51498)
(0.00123557 0.00476262 1.54038)
(0.000423467 0.00495442 1.55334)
(-0.000423593 0.00495442 1.55334)
(-0.00123569 0.00476261 1.54038)
(-0.00194858 0.00440126 1.51498)
(-0.00252012 0.00390615 1.4782)
(-0.00291373 0.00333408 1.43108)
(0.00326193 0.00370282 1.55293)
(0.00279682 0.00425619 1.6003)
(0.00214678 0.00472294 1.63693)
(0.00135339 0.00505939 1.66202)
(0.000462444 0.00523645 1.67476)
(-0.000462584 0.00523645 1.67476)
(-0.00135353 0.00505939 1.66202)
(-0.00214691 0.00472294 1.63693)
(-0.00279693 0.00425618 1.6003)
(-0.00326203 0.00370281 1.55293)
(0.00346478 0.00393029 1.65709)
(0.00293164 0.00436438 1.70482)
(0.00222459 0.00473433 1.74034)
(0.00139137 0.00499605 1.76434)
(0.000473506 0.00513212 1.77643)
(-0.000473655 0.00513212 1.77643)
(-0.00139151 0.00499605 1.76434)
(-0.00222473 0.00473433 1.74034)
(-0.00293177 0.00436438 1.70482)
(-0.00346489 0.00393029 1.65709)
(-4.267e-07 2.1104e-07 0.122878)
(-1.47131e-06 7.08302e-07 0.128965)
(-1.66699e-06 5.35794e-07 0.133873)
(-1.0844e-06 2.21482e-07 0.137319)
(-3.92733e-07 4.30758e-08 0.139095)
(3.88203e-07 4.27341e-08 0.139095)
(1.08001e-06 2.20467e-07 0.137319)
(1.6629e-06 5.34185e-07 0.133873)
(1.4675e-06 7.06123e-07 0.128965)
(4.23601e-07 2.0845e-07 0.122878)
(3.97308e-05 4.78058e-05 0.356372)
(3.26647e-05 6.07329e-05 0.373027)
(2.44633e-05 7.09499e-05 0.386442)
(1.56259e-05 7.82936e-05 0.395847)
(5.35221e-06 8.22529e-05 0.400692)
(-5.3673e-06 8.22519e-05 0.400692)
(-1.56405e-05 7.82907e-05 0.395847)
(-2.4477e-05 7.09455e-05 0.386442)
(-3.26774e-05 6.07269e-05 0.373027)
(-3.97412e-05 4.77985e-05 0.356372)
(0.000136102 0.000159778 0.574573)
(0.000117869 0.000200347 0.600197)
(9.15367e-05 0.000235239 0.620776)
(5.88323e-05 0.000261261 0.635181)
(2.02797e-05 0.000275362 0.642594)
(-2.03066e-05 0.00027536 0.642594)
(-5.88584e-05 0.000261257 0.635181)
(-9.15611e-05 0.000235232 0.620776)
(-0.000117892 0.000200338 0.600196)
(-0.000136121 0.000159767 0.574572)
(0.000288067 0.000335137 0.777337)
(0.000253037 0.00041635 0.810353)
(0.000198394 0.000487981 0.836759)
(0.000127695 0.00054182 0.85521)
(4.40786e-05 0.000571009 0.864695)
(-4.41183e-05 0.000571007 0.864695)
(-0.000127734 0.000541815 0.85521)
(-0.00019843 0.000487973 0.836759)
(-0.00025307 0.000416338 0.810352)
(-0.000288095 0.000335124 0.777337)
(0.000483015 0.00055869 0.964518)
(0.000425842 0.000687217 1.00336)
(0.000334641 0.000801508 1.03428)
(0.000215241 0.000887408 1.05583)
(7.42888e-05 0.000933901 1.0669)
(-7.43417e-05 0.000933899 1.0669)
(-0.000215293 0.000887403 1.05583)
(-0.000334689 0.000801499 1.03428)
(-0.000425886 0.000687205 1.00336)
(-0.000483053 0.000558675 0.964517)
(0.000701957 0.00080789 1.13595)
(0.000618118 0.000982317 1.17909)
(0.000485124 0.00113736 1.21322)
(0.000311366 0.00125345 1.23696)
(0.000107358 0.00131608 1.24913)
(-0.000107424 0.00131608 1.24913)
(-0.00031143 0.00125344 1.23696)
(-0.000485184 0.00113735 1.21322)
(-0.000618173 0.000982304 1.17909)
(-0.000702005 0.000807875 1.13595)
(0.000921998 0.00105579 1.29144)
(0.000808419 0.00126622 1.33737)
(0.000632233 0.00145211 1.37348)
(0.000404439 0.0015904 1.39853)
(0.000139218 0.00166466 1.41135)
(-0.000139297 0.00166465 1.41135)
(-0.000404516 0.00159039 1.39853)
(-0.000632305 0.0014521 1.37348)
(-0.000808485 0.00126621 1.33737)
(-0.000922056 0.00105578 1.29144)
(0.00111926 0.00127415 1.43069)
(0.000975038 0.00150328 1.47801)
(0.000758477 0.00170342 1.51498)
(0.000483035 0.00185086 1.54052)
(0.000165888 0.00192952 1.55355)
(-0.000165979 0.00192952 1.55355)
(-0.000483123 0.00185085 1.54052)
(-0.000758561 0.00170342 1.51498)
(-0.000975115 0.00150327 1.47801)
(-0.00111932 0.00127414 1.43069)
(0.00127388 0.00143867 1.55317)
(0.00110001 0.00166481 1.60083)
(0.00084921 0.00185712 1.63772)
(0.000537511 0.00199677 1.66301)
(0.000184009 0.00207058 1.67584)
(-0.00018411 0.00207058 1.67584)
(-0.000537609 0.00199677 1.66301)
(-0.000849303 0.00185712 1.63772)
(-0.0011001 0.0016648 1.60083)
(-0.00127396 0.00143866 1.55317)
(0.00137263 0.00155101 1.65805)
(0.00116851 0.0017332 1.70617)
(0.000891294 0.00188802 1.74201)
(0.000559423 0.00199806 1.76624)
(0.000190693 0.00205544 1.77845)
(-0.000190801 0.00205544 1.77845)
(-0.000559529 0.00199806 1.76624)
(-0.000891395 0.00188802 1.74201)
(-0.0011686 0.0017332 1.70617)
(-0.00137271 0.001551 1.65805)
(2.19955e-08 7.90359e-07 0.12285)
(-8.40396e-07 1.1781e-06 0.128934)
(-1.04903e-06 1.00851e-06 0.133838)
(-7.61522e-07 7.17747e-07 0.137281)
(-2.83304e-07 5.32164e-07 0.139056)
(2.80227e-07 5.31936e-07 0.139056)
(7.58537e-07 7.17054e-07 0.137281)
(1.04626e-06 1.00741e-06 0.133838)
(8.37861e-07 1.17662e-06 0.128934)
(-2.40877e-08 7.88652e-07 0.122849)
(1.13478e-05 1.49048e-05 0.356237)
(8.03184e-06 1.91903e-05 0.372881)
(5.36114e-06 2.19187e-05 0.386284)
(3.21459e-06 2.36481e-05 0.395681)
(1.06155e-06 2.45252e-05 0.40052)
(-1.07186e-06 2.45245e-05 0.40052)
(-3.22459e-06 2.36461e-05 0.39568)
(-5.37047e-06 2.19156e-05 0.386284)
(-8.04033e-06 1.91861e-05 0.372881)
(-1.13549e-05 1.49e-05 0.356237)
(4.19262e-05 5.07654e-05 0.574319)
(3.47255e-05 6.43217e-05 0.599925)