/*--------------------------------*- C++ -*----------------------------------*\
| =========                 |                                                 |
| \\      /  F ield         | OpenFOAM: The Open Source CFD Toolbox           |
|  \\    /   O peration     | Version:  2106                                  |
|   \\  /    A nd           | Website:  www.openfoam.com                      |
|    \\/     M anipulation  |                                                 |
\*---------------------------------------------------------------------------*/
FoamFile
{
    version     2.0;
    format      ascii;
    arch        "LSB;label=32;scalar=64";
    class       surfaceScalarField;
    location    "0.66";
    object      phi;
}
// * * * * * * * * * * * * * * * * * * * * * * * * * * * * * * * * * * * * * //

dimensions      [0 3 -1 0 0 0 0];

oriented        oriented;

internalField   nonuniform List<scalar> 
29100
(
0.00118094
0.150398
0.0809225
-3.87681e-10
0.0014532
0.155275
0.0889287
0.00124707
0.158694
0.0956168
0.000710213
0.160972
0.100404
-2.167e-09
0.162115
0.102897
-0.000710217
0.162115
0.102897
-0.00124707
0.160972
0.100404
-0.0014532
0.158694
0.0956168
-0.00118094
0.155275
0.0889287
0.150398
0.0809225
-3.09612e-09
0.00236443
0.208245
0.155458
-6.66466e-10
0.0032843
0.212829
0.168982
0.00292933
0.2159
0.18004
0.00169459
0.217817
0.18786
-6.24982e-09
0.218757
0.191901
-0.0016946
0.218757
0.191901
-0.00292934
0.217817
0.18786
-0.00328431
0.2159
0.18004
-0.00236444
0.212829
0.168982
0.208245
0.155458
-8.18862e-09
0.00301629
0.219384
0.184681
-9.70928e-10
0.0042663
0.22231
0.199705
0.00382966
0.224216
0.211797
0.0022181
0.225256
0.220274
-1.00845e-08
0.225739
0.22463
-0.00221812
0.225739
0.22463
-0.00382968
0.225256
0.220274
-0.00426632
0.224216
0.211797
-0.0030163
0.22231
0.199705
0.219384
0.184681
-1.27276e-08
0.00344504
0.206164
0.19178
-1.20047e-09
0.00480642
0.207422
0.206941
0.00430548
0.208189
0.218991
0.00248924
0.208428
0.227378
-1.38372e-08
0.208499
0.23167
-0.00248927
0.208499
0.23167
-0.0043055
0.208428
0.227378
-0.00480644
0.208189
0.218991
-0.00344506
0.207422
0.206941
0.206164
0.19178
-1.68342e-08
0.00367433
0.18125
0.186412
-1.41598e-09
0.00505707
0.181225
0.201209
0.00451774
0.181126
0.212851
0.00260856
0.180796
0.220905
-1.76355e-08
0.18058
0.225014
-0.00260859
0.18058
0.225014
-0.00451778
0.180796
0.220905
-0.0050571
0.181126
0.212851
-0.00367435
0.181225
0.201209
0.18125
0.186412
-2.0722e-08
0.00375923
0.151921
0.173911
-1.64156e-09
0.00512297
0.151045
0.18819
0.00456714
0.150381
0.199335
0.0026356
0.149718
0.207006
-2.15469e-08
0.149341
0.210908
-0.00263564
0.149341
0.210908
-0.00456718
0.149718
0.207006
-0.005123
0.150381
0.199335
-0.00375926
0.151045
0.18819
0.151921
0.173911
-2.44544e-08
0.00376725
0.122256
0.157406
-1.87313e-09
0.00509791
0.1209
0.171168
0.00453794
0.119922
0.181839
0.00261859
0.119115
0.189149
-2.55855e-08
0.118679
0.192859
-0.00261864
0.118679
0.192859
-0.00453799
0.119115
0.189149
-0.00509795
0.119922
0.181839
-0.00376728
0.1209
0.171168
0.122256
0.157406
-2.81179e-08
0.00373292
0.0944715
0.138729
-2.06937e-09
0.00504411
0.0928924
0.152029
0.0044899
0.0917978
0.162285
0.00259205
0.0909926
0.169279
-2.97074e-08
0.090576
0.172822
-0.00259211
0.090576
0.172822
-0.00448995
0.0909926
0.169279
-0.00504415
0.0917978
0.162285
-0.00373295
0.0928924
0.152029
0.0944715
0.138729
-3.16762e-08
0.00370127
0.069681
0.118934
-1.95984e-09
0.00502599
0.0680439
0.131836
0.00447519
0.0670038
0.141737
0.00258276
0.0663156
0.148459
-3.38499e-08
0.0659749
0.151856
-0.00258283
0.0659749
0.151856
-0.00447526
0.0663156
0.148459
-0.00502604
0.0670038
0.141737
-0.00370131
0.0680439
0.131836
0.0696809
0.118934
-3.49913e-08
0.00392149
0.0986225
-1.91074e-09
0.0481493
0.00521564
0.111187
0.0468542
0.00458764
0.120778
0.0460317
0.00262773
0.127263
0.0455341
-3.77857e-08
0.130531
0.0452902
-0.0026278
0.130531
0.0452902
-0.00458771
0.127263
0.0455341
-0.00521569
0.120778
0.0460317
-0.00392154
0.111187
0.0468542
0.0986225
-3.75034e-08
0.0481493
-0.000240351
0.0365276
0.0446352
-3.48039e-10
-0.000242395
0.039702
0.0492288
-0.000170361
0.0423844
0.0531604
-8.48329e-05
0.0443026
0.0560158
-3.77039e-09
0.0452949
0.0575173
8.48254e-05
0.0452949
0.0575173
0.000170354
0.0443026
0.0560158
0.000242389
0.0423844
0.0531604
0.000240346
0.039702
0.0492288
0.0365276
0.0446352
-5.1182e-09
6.49159e-05
0.0806949
0.111226
-7.15626e-10
0.00025329
0.0864854
0.12201
0.000302594
0.0913008
0.131074
0.000202669
0.0946749
0.137587
-1.16509e-08
0.0964081
0.14099
-0.000202692
0.0964081
0.14099
-0.000302616
0.0946749
0.137587
-0.000253309
0.0913008
0.131074
-6.49326e-05
0.0864854
0.12201
0.0806949
0.111226
-1.47206e-08
0.000614798
0.1122
0.152562
-1.10468e-09
0.00103314
0.11891
0.166861
0.00101082
0.124418
0.178703
0.000617754
0.128202
0.187139
-1.95648e-08
0.130131
0.191524
-0.000617793
0.130131
0.191524
-0.00101086
0.128202
0.187139
-0.00103318
0.124418
0.178703
-0.000614825
0.11891
0.166861
0.1122
0.152562
-2.3893e-08
0.00123412
0.128704
0.174042
-1.47263e-09
0.00187741
0.135098
0.19011
0.00176653
0.140279
0.203241
0.00105504
0.143765
0.212527
-2.75e-08
0.145525
0.217331
-0.0010551
0.145525
0.217331
-0.00176658
0.143765
0.212527
-0.00187746
0.140279
0.203241
-0.00123416
0.135098
0.19011
0.128704
0.174042
-3.2352e-08
0.00183978
0.13194
0.181336
-1.86805e-09
0.00267978
0.137329
0.198138
0.00247663
0.141626
0.211707
0.001463
0.144449
0.221235
-3.54916e-08
0.145858
0.226145
-0.00146307
0.145858
0.226145
-0.0024767
0.144449
0.221235
-0.00267984
0.141626
0.211707
-0.00183982
0.137329
0.198138
0.13194
0.181336
-4.01957e-08
0.00238779
0.124938
0.178525
-2.32438e-09
0.00339365
0.129049
0.195464
0.00310396
0.132251
0.208999
0.00182221
0.134295
0.218442
-4.35318e-08
0.135299
0.22329
-0.0018223
0.135299
0.22329
-0.00310404
0.134295
0.218442
-0.00339372
0.132251
0.208999
-0.00238785
0.129049
0.195464
0.124938
0.178525
-4.73972e-08
0.00285503
0.11092
0.168569
-2.87587e-09
0.0040026
0.113748
0.185321
0.00363997
0.11587
0.198583
0.00212966
0.117177
0.207777
-5.14964e-08
0.117806
0.212482
-0.00212976
0.117806
0.212482
-0.00364006
0.117177
0.207777
-0.00400268
0.11587
0.198583
-0.0028551
0.113748
0.185321
0.11092
0.168569
-5.39571e-08
0.00323568
0.0928004
0.153612
-3.50245e-09
0.00451629
0.0944738
0.170022
0.00409836
0.0956691
0.182904
0.00239415
0.096376
0.191784
-5.90759e-08
0.0967105
0.196311
-0.00239426
0.0967105
0.196311
-0.00409846
0.096376
0.191784
-0.00451638
0.0956691
0.182904
-0.00323576
0.0944738
0.170022
0.0928004
0.153612
-5.97239e-08
0.00356554
0.0729759
0.135193
-4.06865e-09
0.00498389
0.0736875
0.151204
0.0045169
0.0741978
0.163675
0.00263447
0.0744958
0.172222
-6.58248e-08
0.0746368
0.176565
-0.0026346
0.0746368
0.176565
-0.00451702
0.0744958
0.172222
-0.00498399
0.0741978
0.163675
-0.00356562
0.0736875
0.151204
0.0729759
0.135193
-6.44782e-08
0.00399171
0.114401
-4.46027e-09
0.0532053
0.0055297
0.130024
0.0533131
0.0049724
0.142085
0.0534488
0.00288404
0.150301
0.0535459
-7.11358e-08
0.154461
0.0535911
-0.00288418
0.154461
0.0535911
-0.00497252
0.150301
0.0535459
-0.00552981
0.142085
0.0534488
-0.00399179
0.130024
0.0533131
0.114401
-6.74008e-08
0.0532053
3.93085e-05
0.00999517
0.0346008
-3.65088e-10
3.52803e-05
0.011029
0.0382039
2.97279e-05
0.0119063
0.0412597
1.6475e-05
0.0125577
0.0434714
-4.19793e-09
0.0129009
0.0446329
-1.64832e-05
0.0129009
0.0446329
-2.97357e-05
0.0125577
0.0434714
-3.52874e-05
0.0119063
0.0412597
-3.93149e-05
0.011029
0.0382039
0.00999518
0.0346008
-5.81003e-09
0.000281484
0.0303078
0.0906316
-7.97382e-10
0.000382281
0.033018
0.0999202
0.000341672
0.0352859
0.107735
0.000199307
0.0369216
0.113366
-1.32891e-08
0.0377762
0.116314
-0.000199333
0.0377762
0.116314
-0.000341697
0.0369216
0.113366
-0.000382303
0.0352859
0.107735
-0.000281504
0.033018
0.0999202
0.0303078
0.0906316
-1.71461e-08
0.000601165
0.0512202
0.131048
-1.25696e-09
0.000853039
0.0552236
0.144404
0.000772839
0.0585295
0.155539
0.000452988
0.0608609
0.16352
-2.27153e-08
0.0620687
0.167685
-0.000453033
0.0620687
0.167685
-0.000772881
0.0608609
0.16352
-0.000853077
0.0585295
0.155539
-0.000601198
0.0552236
0.144404
0.0512202
0.131048
-2.80543e-08
0.000968626
0.0670342
0.15726
-1.72257e-09
0.00139013
0.0716144
0.173298
0.0012697
0.0753508
0.18654
0.000745673
0.0779347
0.195977
-3.22981e-08
0.079261
0.200885
-0.000745736
0.079261
0.200885
-0.00126976
0.0779347
0.195977
-0.00139018
0.0753509
0.18654
-0.000968671
0.0716144
0.173298
0.0670342
0.157259
-3.81808e-08
0.00135876
0.0757533
0.171258
-2.25068e-09
0.00194629
0.0802509
0.188914
0.00178212
0.0838715
0.20335
0.00104687
0.0863274
0.213577
-4.19569e-08
0.0875755
0.218877
-0.00104696
0.0875755
0.218877
-0.00178219
0.0863274
0.213577
-0.00194635
0.0838715
0.20335
-0.00135881
0.0802509
0.188914
0.0757533
0.171258
-4.74766e-08
0.00175116
0.0773937
0.175134
-2.88385e-09
0.00249141
0.0813412
0.193633
0.00228025
0.0844647
0.208617
0.00133875
0.0865408
0.21917
-5.1564e-08
0.0875844
0.22462
-0.00133885
0.0875844
0.22462
-0.00228034
0.0865408
0.21917
-0.00249149
0.0844647
0.208617
-0.00175123
0.0813412
0.193633
0.0773937
0.175133
-5.58324e-08
0.00212252
0.0730274
0.170813
-3.71666e-09
0.00300125
0.076162
0.189622
0.00274414
0.0785851
0.204719
0.00161018
0.0801622
0.21529
-6.08958e-08
0.080946
0.22073
-0.0016103
0.080946
0.22073
-0.00274425
0.0801622
0.21529
-0.00300135
0.0785851
0.204719
-0.0021226
0.076162
0.189622
0.0730274
0.170812
-6.31738e-08
0.00245674
0.0642065
0.159977
-4.71458e-09
0.00346576
0.0664309
0.178744
0.00316719
0.0681073
0.193681
0.00185753
0.0691788
0.204077
-6.95325e-08
0.0697065
0.209408
-0.00185766
0.0697065
0.209408
-0.00316731
0.0691788
0.204077
-0.00346587
0.0681073
0.193681
-0.00245683
0.0664309
0.178744
0.0642065
0.159977
-6.93635e-08
0.00276631
0.0525927
0.14404
-5.72556e-09
0.00390079
0.0539414
0.162559
0.00355908
0.0549517
0.177173
0.00208443
0.0555951
0.18728
-7.68825e-08
0.0559116
0.192444
-0.00208458
0.0559116
0.192444
-0.00355921
0.0555951
0.18728
-0.00390091
0.0549517
0.177173
-0.00276641
0.0539414
0.162559
0.0525928
0.14404
-7.43055e-08
0.00310937
0.124172
-6.61085e-09
0.0397129
0.00435007
0.142359
0.0403654
0.00394648
0.156552
0.0408882
0.00230195
0.166301
0.0412393
-8.20599e-08
0.171262
0.0414128
-0.00230211
0.171262
0.0414128
-0.00394663
0.166301
0.0412393
-0.00435019
0.156552
0.0408882
-0.00310946
0.142359
0.0403654
0.124172
-7.69521e-08
0.0397129
-3.16207e-05
0.00408186
0.0305505
-3.86816e-10
-4.51561e-05
0.00449489
0.0337225
-3.64006e-05
0.00484537
0.0364055
-2.00658e-05
0.00510597
0.0383491
-3.9573e-09
0.00524248
0.0393703
2.00581e-05
0.00524248
0.0393703
3.63932e-05
0.00510597
0.0383491
4.51492e-05
0.00484537
0.0364055
3.16144e-05
0.00449489
0.0337225
0.00408186
0.0305505
-5.61987e-09
1.01668e-05
0.0126753
0.0820281
-9.41499e-10
1.75323e-05
0.0138892
0.0905185
2.19368e-05
0.0149179
0.0976578
1.56335e-05
0.0156677
0.10281
-1.27103e-08
0.0160609
0.105511
-1.56584e-05
0.0160609
0.105511
-2.19605e-05
0.0156677
0.10281
-1.7553e-05
0.0149179
0.0976578
-1.01846e-05
0.0138892
0.0905185
0.0126753
0.082028
-1.66904e-08
0.000123846
0.0225636
0.121036
-1.48539e-09
0.000187793
0.0245798
0.133649
0.000180328
0.026277
0.144187
0.000109855
0.0274954
0.151763
-2.19626e-08
0.0281315
0.155724
-0.000109898
0.0281315
0.155724
-0.000180368
0.0274954
0.151763
-0.000187829
0.026277
0.144187
-0.000123878
0.0245798
0.133649
0.0225636
0.121036
-2.77127e-08
0.000294794
0.0312853
0.148243
-2.0259e-09
0.000439549
0.0338535
0.163879
0.000414356
0.0359945
0.176848
0.000248429
0.0375088
0.186129
-3.1495e-08
0.0382946
0.19097
-0.00024849
0.0382946
0.19097
-0.000414414
0.0375088
0.186129
-0.0004396
0.0359945
0.176848
-0.000294838
0.0338535
0.163879
0.0312853
0.148243
-3.7899e-08
0.000507353
0.0373162
0.16472
-2.6368e-09
0.000745754
0.0400949
0.182434
0.000697562
0.0423817
0.197011
0.000415523
0.0439747
0.207393
-4.1158e-08
0.0447949
0.212792
-0.000415603
0.0447949
0.212792
-0.000697637
0.0439747
0.207393
-0.00074582
0.0423818
0.197011
-0.000507409
0.0400949
0.182434
0.0373163
0.16472
-4.71874e-08
0.000745458
0.0400032
0.171701
-3.38394e-09
0.00108231
0.0426705
0.190721
0.00100692
0.0448285
0.206246
0.000597495
0.0463074
0.217247
-5.0741e-08
0.0470624
0.22295
-0.000597593
0.0470624
0.22295
-0.00100701
0.0463074
0.217247
-0.00108239
0.0448285
0.206246
-0.000745524
0.0426705
0.190721
0.0400032
0.171701
-5.545e-08
0.000991789
0.039364
0.17046
-4.36144e-09
0.00142745
0.0416744
0.190182
0.0013231
0.0435031
0.206149
0.000783146
0.0447351
0.217402
-5.99519e-08
0.0453585
0.223217
-0.000783263
0.0453585
0.223217
-0.00132321
0.0447351
0.217402
-0.00142755
0.0435031
0.206149
-0.000991865
0.0416744
0.190182
0.039364
0.17046
-6.25614e-08
0.00123334
0.0358769
0.16223
-5.50569e-09
0.0017678
0.0376785
0.182206
0.00163434
0.0390713
0.198246
0.000965458
0.0399952
0.209486
-6.83264e-08
0.0404588
0.215274
-0.000965591
0.0404588
0.215274
-0.00163446
0.0399952
0.209486
-0.0017679
0.0390713
0.198246
-0.00123342
0.0376786
0.182206
0.035877
0.16223
-6.83253e-08
0.00147426
0.0302855
0.148157
-6.63799e-09
0.00210573
0.0315263
0.16808
0.00193919
0.0324704
0.18394
0.00114229
0.033091
0.194981
-7.52579e-08
0.0334009
0.200644
-0.00114244
0.0334009
0.200644
-0.00193932
0.033091
0.194981
-0.00210584
0.0324704
0.18394
-0.00147435
0.0315263
0.16808
0.0302855
0.148157
-7.26097e-08
0.00172915
0.129283
-7.58818e-09
0.0234456
0.00245167
0.149
0.0241625
0.00224487
0.164502
0.0247269
0.00131675
0.175214
0.0251069
-7.98983e-08
0.180683
0.0252967
-0.00131691
0.180683
0.0252967
-0.00224501
0.175214
0.0251069
-0.00245179
0.164502
0.0247269
-0.00172925
0.149
0.0241626
0.129283
-7.44129e-08
0.0234456
2.11257e-06
0.00133448
0.0292139
-3.46302e-10
-2.68118e-07
0.0014818
0.0322431
1.28651e-07
0.00160993
0.0347952
1.42112e-07
0.00170773
0.0366413
-3.39789e-09
0.00175989
0.0376106
-1.48828e-07
0.00175989
0.0376106
-1.35066e-07
0.00170773
0.0366413
2.62158e-07
0.00160993
0.0347952
-2.11784e-06
0.0014818
0.0322431
0.00133449
0.0292139
-5.02384e-09
3.08807e-05
0.00478869
0.078543
-8.36887e-10
3.99172e-05
0.00528544
0.0867058
3.67595e-05
0.00571225
0.0935587
2.18006e-05
0.00602932
0.0985036
-1.10479e-08
0.00619732
0.101096
-2.18224e-05
0.00619732
0.101096
-3.67801e-05
0.00602932
0.0985036
-3.9936e-05
0.00571225
0.0935587
-3.08974e-05
0.00528545
0.0867058
0.00478869
0.078543
-1.51357e-08
8.61457e-05
0.00923968
0.116499
-1.40776e-09
0.000122092
0.0101418
0.128757
0.000112687
0.01091
0.138999
6.68801e-05
0.0114705
0.146367
-1.92562e-08
0.0117658
0.150223
-6.69179e-05
0.0117658
0.150223
-0.000112723
0.0114705
0.146367
-0.000122124
0.01091
0.138999
-8.61737e-05
0.0101418
0.128757
0.00923969
0.116499
-2.49596e-08
0.000167662
0.0135783
0.143737
-2.01802e-09
0.000243438
0.0148157
0.15913
0.000226082
0.0158595
0.171916
0.000134257
0.0166096
0.181082
-2.77724e-08
0.0170024
0.185868
-0.000134311
0.0170024
0.185868
-0.000226133
0.0166096
0.181082
-0.000243483
0.0158595
0.171916
-0.000167701
0.0148157
0.15913
0.0135783
0.143737
-3.41098e-08
0.000272467
0.0169708
0.161055
-2.70542e-09
0.000397118
0.0183989
0.178726
0.000369568
0.0195895
0.193309
0.000219414
0.0204329
0.20372
-3.64336e-08
0.0208714
0.209143
-0.000219486
0.0208714
0.209143
-0.000369634
0.0204329
0.20372
-0.000397177
0.0195895
0.193309
-0.000272516
0.0183989
0.178726
0.0169708
0.161055
-4.24644e-08
0.000395174
0.0189185
0.169358
-3.50316e-09
0.000574122
0.0203703
0.18857
0.000534106
0.0215628
0.204313
0.000316856
0.022395
0.215502
-4.50271e-08
0.0228243
0.221314
-0.000316943
0.0228243
0.221314
-0.000534187
0.022395
0.215502
-0.000574192
0.0215628
0.204313
-0.000395233
0.0203703
0.18857
0.0189185
0.169358
-4.98559e-08
0.000528292
0.019246
0.169604
-4.50364e-09
0.000764189
0.0205713
0.189745
0.000710095
0.0216397
0.206126
0.000420843
0.0223738
0.217713
-5.32665e-08
0.0227494
0.223713
-0.000420946
0.0227494
0.223713
-0.00071019
0.0223739
0.217713
-0.000764271
0.0216397
0.206126
-0.000528359
0.0205713
0.189745
0.019246
0.169604
-5.61541e-08
0.000665076
0.0180481
0.162763
-5.68262e-09
0.000959204
0.0191362
0.183347
0.000889764
0.0199956
0.19996
0.000526581
0.0205773
0.211646
-6.07066e-08
0.0208723
0.217677
-0.000526699
0.0208724
0.217677
-0.000889872
0.0205773
0.211646
-0.000959297
0.0199956
0.199959
-0.00066515
0.0191362
0.183347
0.0180481
0.162763
-6.11868e-08
0.000805502
0.0156147
0.149785
-6.89205e-09
0.00115624
0.0164094
0.170456
0.00106828
0.017025
0.186999
0.000630555
0.0174363
0.19856
-6.67831e-08
0.0176435
0.204504
-0.000630684
0.0176435
0.204504
-0.00106839
0.0174363
0.19856
-0.00115634
0.017025
0.186999
-0.000805581
0.0164094
0.170456
0.0156147
0.149785
-6.48682e-08
0.000944283
0.13159
-7.87295e-09
0.0123633
0.00134754
0.152153
0.0128533
0.00124032
0.168396
0.0132384
0.000729934
0.179661
0.0134995
-7.07322e-08
0.185425
0.013631
-0.000730071
0.185425
0.013631
-0.00124044
0.179661
0.0134995
-0.00134765
0.168396
0.0132384
-0.000944364
0.152153
0.0128534
0.13159
-6.62819e-08
0.0123633
-5.57217e-06
0.000581642
0.0286378
-3.04247e-10
-8.30701e-06
0.000639865
0.031606
-6.58393e-06
0.000689129
0.0341044
-3.62949e-06
0.000726576
0.0359118
-2.68874e-09
0.000746259
0.0368607
3.62386e-06
0.000746259
0.0368607
6.5787e-06
0.000726576
0.0359118
8.30226e-06
0.000689129
0.0341044
5.56761e-06
0.000639867
0.031606
0.000581643
0.0286378
-4.24362e-09
-8.87927e-07
0.00202647
0.077099
-7.57944e-10
-1.94127e-06
0.00223245
0.0851143
-6.69809e-07
0.00240798
0.0918386
1.44194e-07
0.00253847
0.0966909
-8.77758e-09
0.00260762
0.0992344
-1.60031e-07
0.00260762
0.0992344
6.53351e-07
0.00253848
0.0966909
1.92464e-06
0.00240799
0.0918385
8.74075e-07
0.00223246
0.0851143
0.00202647
0.077099
-1.27116e-08
1.76573e-05
0.00394155
0.114566
-1.27695e-09
2.61136e-05
0.00433469
0.126647
2.56098e-05
0.00466975
0.136738
1.58235e-05
0.00491561
0.144
-1.57274e-08
0.00504554
0.147801
-1.58547e-05
0.00504554
0.147801
-2.5639e-05
0.00491561
0.144
-2.61399e-05
0.00466976
0.136738
-1.76804e-05
0.0043347
0.126646
0.00394156
0.114566
-2.09761e-08
5.07216e-05
0.00590727
0.14172
-1.84928e-09
7.54956e-05
0.00647333
0.156966
7.1859e-05
0.00695322
0.169636
4.33759e-05
0.00730106
0.178725
-2.28501e-08
0.00748404
0.183473
-4.34208e-05
0.00748404
0.183473
-7.1901e-05
0.00730106
0.178725
-7.55331e-05
0.00695322
0.169636
-5.0754e-05
0.00647334
0.156966
0.00590728
0.14172
-2.87015e-08
9.70774e-05
0.00755267
0.159313
-2.50964e-09
0.000143787
0.00823652
0.176916
0.000135765
0.00881085
0.191459
8.13784e-05
0.00922195
0.201854
-3.00676e-08
0.00943692
0.207271
-8.14372e-05
0.00943692
0.207271
-0.000135819
0.00922196
0.201854
-0.000143835
0.00881087
0.191459
-9.71184e-05
0.00823653
0.176916
0.00755268
0.159313
-3.57654e-08
0.000154587
0.0086129
0.168143
-3.28566e-09
0.000227374
0.00933856
0.187396
0.000213739
0.00993994
0.203197
0.00012766
0.0103646
0.214445
-3.72256e-08
0.0105851
0.220293
-0.000127733
0.0105851
0.220293
-0.000213806
0.0103646
0.214445
-0.000227433
0.00993995
0.203197
-0.000154636
0.00933858
0.187395
0.00861291
0.168143
-4.20122e-08
0.000220019
0.0089518
0.169045
-4.23017e-09
0.000321666
0.00964166
0.189341
0.000301414
0.0102036
0.205883
0.000179586
0.0105948
0.217604
-4.40767e-08
0.0107963
0.223682
-0.000179672
0.0107963
0.223682
-0.000301493
0.0105948
0.217604
-0.000321734
0.0102036
0.205883
-0.000220075
0.00964168
0.189341
0.00895181
0.169045
-4.7318e-08
0.000290346
0.00855951
0.162865
-5.28264e-09
0.000422718
0.00914915
0.183707
0.000394849
0.00962034
0.200571
0.00023468
0.0099435
0.212457
-5.02415e-08
0.0101085
0.2186
-0.000234778
0.0101085
0.2186
-0.000394938
0.00994351
0.212457
-0.000422795
0.00962036
0.200571
-0.000290408
0.00914916
0.183707
0.00855953
0.162865
-5.1525e-08
0.000365735
0.00753201
0.150447
-6.30925e-09
0.000528824
0.00798206
0.17146
0.000491227
0.00833431
0.188322
0.000290917
0.0085724
0.200132
-5.52505e-08
0.00869302
0.20621
-0.000291025
0.00869302
0.20621
-0.000491325
0.00857241
0.200132
-0.000528907
0.00833432
0.188322
-0.000365801
0.00798207
0.17146
0.00753202
0.150447
-5.4558e-08
0.000441371
0.132632
-7.14531e-09
0.00604881
0.000634423
0.153602
0.0063403
0.000587061
0.170207
0.00657045
0.000346605
0.181746
0.00672747
-5.84859e-08
0.187658
0.00680691
-0.000346718
0.187658
0.00680691
-0.000587164
0.181746
0.00672748
-0.00063451
0.170207
0.00657045
-0.000441439
0.153601
0.00634031
0.132631
-5.56988e-08
0.00604882
-8.40343e-07
0.000188693
0.02845
-2.7518e-10
-1.63307e-06
0.000209012
0.0313978
-1.18969e-06
0.000226697
0.0338772
-6.36533e-07
0.000240583
0.0356707
-2.11764e-09
0.000247992
0.0366121
6.32307e-07
0.000247992
0.0366121
1.18565e-06
0.000240583
0.0356707
1.62924e-06
0.000226698
0.0338772
8.36723e-07
0.000209012
0.0313977
0.000188694
0.02845
-3.31379e-09
1.82799e-06
0.000737059
0.0765489
-7.29068e-10
1.93684e-06
0.000816202
0.084507
2.0976e-06
0.000884758
0.0911803
1.37239e-06
0.000936639
0.0959955
-6.96415e-09
0.000964336
0.0985194
-1.38616e-06
0.000964336
0.0985194
-2.1107e-06
0.000936641
0.0959955
-1.9487e-06
0.00088476
0.0911803
-1.83857e-06
0.000816205
0.084507
0.000737062
0.0765488
-9.96506e-09
9.90635e-06
0.001516
0.113777
-1.19171e-09
1.38954e-05
0.00167557
0.125783
1.3188e-05
0.00181313
0.13581
7.98563e-06
0.0019154
0.143026
-1.22601e-08
0.00196981
0.146803
-8.00976e-06
0.00196981
0.146803
-1.32108e-05
0.0019154
0.143026
-1.39161e-05
0.00181313
0.13581
-9.92461e-06
0.00167557
0.125783
0.001516
0.113777
-1.65789e-08
2.40449e-05
0.00235818
0.140854
-1.68291e-09
3.50171e-05
0.00259787
0.156033
3.29756e-05
0.00280315
0.168648
1.97778e-05
0.00295372
0.1777
-1.78096e-08
0.00303343
0.182429
-1.98127e-05
0.00303344
0.182429
-3.30084e-05
0.00295372
0.1777
-3.50466e-05
0.00280316
0.168648
-2.40704e-05
0.00259788
0.156033
0.00235819
0.140854
-2.2794e-08
4.43141e-05
0.00310364
0.158523
-2.23583e-09
6.50639e-05
0.00340393
0.176089
6.1179e-05
0.00365871
0.190607
3.65819e-05
0.00384322
0.200989
-2.34816e-08
0.00394032
0.206401
-3.66278e-05
0.00394033
0.206401
-6.12219e-05
0.00384323
0.200989
-6.5102e-05
0.00365872
0.190607
-4.43465e-05
0.00340394
0.176089
0.00310365
0.158523
-2.84938e-08
7.01546e-05
0.00362583
0.167551
-2.86921e-09
0.000102966
0.00395495
0.186812
9.66952e-05
0.00423068
0.202632
5.77185e-05
0.00442772
0.2139
-2.91132e-08
0.0045307
0.219761
-5.77754e-05
0.00453071
0.219761
-9.67479e-05
0.00442773
0.2139
-0.000103012
0.00423069
0.202631
-7.01932e-05
0.00395496
0.186812
0.00362585
0.167551
-3.35502e-08
0.000100381
0.00384744
0.168723
-3.6273e-09
0.000146939
0.00416967
0.189079
0.000137778
0.0044353
0.205688
8.21165e-05
0.00462245
0.217465
-3.45047e-08
0.00471948
0.223575
-8.21837e-05
0.00471948
0.223575
-0.00013784
0.00462246
0.217465
-0.000146993
0.00443531
0.205688
-0.000100425
0.00416968
0.189079
0.00384746
0.168723
-3.78657e-08
0.00013371
0.0037458
0.162833
-4.48119e-09
0.000195155
0.00402909
0.183786
0.000182527
0.00425829
0.20076
0.000108565
0.00441728
0.212736
-3.93642e-08
0.00449897
0.218929
-0.000108641
0.00449897
0.218929
-0.000182597
0.00441729
0.212736
-0.000195215
0.0042583
0.20076
-0.000133759
0.0040291
0.183786
0.00374581
0.162833
-4.13157e-08
0.000169887
0.00334905
0.150674
-5.32884e-09
0.000246198
0.00357179
0.171841
0.00022905
0.00374773
0.18885
0.000135787
0.00386771
0.200774
-4.33367e-08
0.00392878
0.206916
-0.000135871
0.00392878
0.206916
-0.000229127
0.00386771
0.200774
-0.000246263
0.00374774
0.18885
-0.000169939
0.0035718
0.171841
0.00334906
0.150674
-4.38381e-08
0.000204422
0.133046
-5.98023e-09
0.0027307
0.000295243
0.154204
0.00287883
0.000274148
0.17098
0.00299608
0.000162208
0.182649
0.00307646
-4.59716e-08
0.188632
0.00311728
-0.000162297
0.188632
0.00311729
-0.000274229
0.182649
0.00307647
-0.000295312
0.17098
0.00299609
-0.000204476
0.154204
0.00287884
0.133045
-4.49159e-08
0.0027307
-1.37533e-06
7.65874e-05
0.0283748
-1.9751e-10
-1.98035e-06
8.4082e-05
0.0313143
-1.5915e-06
9.04987e-05
0.0337863
-8.78858e-07
9.54972e-05
0.0355745
-1.57178e-09
9.81382e-05
0.0365131
8.75746e-07
9.81383e-05
0.036513
1.58851e-06
9.54975e-05
0.0355745
1.97754e-06
9.04993e-05
0.0337863
1.37268e-06
8.40827e-05
0.0313143
7.65879e-05
0.0283748
-2.4559e-09
-1.62896e-06
0.000288574
0.0763385
-5.36701e-10
-2.45114e-06
0.000318764
0.0842731
-1.96846e-06
0.000344858
0.0909255
-1.04797e-06
0.000364652
0.0957255
-5.18328e-09
0.000375208
0.0982413
1.03775e-06
0.000375209
0.0982413
1.95873e-06
0.000364653
0.0957255
2.44211e-06
0.00034486
0.0909255
1.62065e-06
0.000318767
0.0842731
0.000288576
0.0763385
-7.47338e-09
8.13406e-07
0.000594666
0.11347
-9.09756e-10
1.05505e-06
0.000657895
0.125444
1.26143e-06
0.000712419
0.135442
8.88029e-07
0.000753169
0.142638
-9.12847e-09
0.000774901
0.146404
-9.05975e-07
0.000774901
0.146404
-1.27841e-06
0.000753171
0.142638
-1.07027e-06
0.000712422
0.135442
-8.2611e-07
0.000657899
0.125444
0.000594671
0.11347
-1.23211e-08
5.906e-06
0.000936965
0.140506
-1.32836e-09
8.72806e-06
0.00103512
0.155653
8.45818e-06
0.00111943
0.168241
5.17828e-06
0.00118167
0.177275
-1.32817e-08
0.00121473
0.181994
-5.20433e-06
0.00121473
0.181994
-8.48269e-06
0.00118167
0.177275
-8.75015e-06
0.00111943
0.168241
-5.92522e-06
0.00103512
0.155653
0.000936972
0.140506
-1.72084e-08
1.39083e-05
0.00125257
0.158193
-1.783e-09
2.06167e-05
0.00137931
0.175739
1.96232e-05
0.00148731
0.190241
1.18342e-05
0.00156608
0.200612
-1.75386e-08
0.0016077
0.20602
-1.18685e-05
0.0016077
0.20602
-1.96553e-05
0.00156609
0.200612
-2.06453e-05
0.00148732
0.190241
-1.39327e-05
0.00137932
0.175738
0.00125257
0.158193
-2.16704e-08
2.45823e-05
0.00148669
0.167292
-2.28907e-09
3.63536e-05
0.00162954
0.18655
3.4401e-05
0.00174984
0.202371
2.06393e-05
0.00183646
0.213643
-2.17711e-08
0.00188192
0.219507
-2.06818e-05
0.00188192
0.219507
-3.44405e-05
0.00183646
0.213643
-3.63884e-05
0.00174985
0.202371
-2.46116e-05
0.00162955
0.18655
0.0014867
0.167292
-2.56312e-08
3.74927e-05
0.00160151
0.168571
-2.87447e-09
5.52637e-05
0.00174507
0.188946
5.21236e-05
0.00186412
0.205576
3.11813e-05
0.00194865
0.217374
-2.58286e-08
0.00199266
0.223495
-3.12316e-05
0.00199266
0.223495
-5.21701e-05
0.00194865
0.217374
-5.53043e-05
0.00186413
0.205576
-3.75263e-05
0.00174508
0.188946
0.00160152
0.168571
-2.90443e-08
5.21622e-05
0.0015808
0.162802
-3.50548e-09
7.66194e-05
0.00171023
0.183796
7.20067e-05
0.00181563
0.200813
4.29524e-05
0.00188929
0.212825
-2.94978e-08
0.00192729
0.219037
-4.30098e-05
0.0019273
0.219037
-7.20595e-05
0.0018893
0.212825
-7.6665e-05
0.00181564
0.200813
-5.21994e-05
0.00171024
0.183796
0.00158081
0.162801
-3.18194e-08
6.85631e-05
0.00143043
0.150756
-4.10713e-09
9.98486e-05
0.00153487
0.171985
9.32365e-05
0.00161786
0.189054
5.53959e-05
0.00167481
0.201027
-3.25249e-08
0.00170391
0.207195
-5.54591e-05
0.00170391
0.207195
-9.32943e-05
0.00167482
0.201027
-9.98982e-05
0.00161786
0.189054
-6.8603e-05
0.00153487
0.171985
0.00143044
0.150756
-3.39091e-08
8.45451e-05
0.133214
-4.58157e-09
0.00117788
0.000122732
0.154451
0.00124923
0.000114397
0.1713
0.00130595
6.78371e-05
0.183026
0.00134499
-3.46008e-08
0.189039
0.00136487
-6.79042e-05
0.189039
0.00136487
-0.000114458
0.183026
0.00134499
-0.000122785
0.1713
0.00130595
-8.45865e-05
0.154451
0.00124924
0.133213
-3.49588e-08
0.00117788
-3.94954e-07
1.97216e-05
0.0283555
-1.40508e-10
-6.08176e-07
2.18472e-05
0.0312926
-4.88563e-07
2.37917e-05
0.0337624
-2.71422e-07
2.53928e-05
0.0355489
-1.12012e-09
2.62564e-05
0.0364865
2.69201e-07
2.62565e-05
0.0364865
4.86431e-07
2.5393e-05
0.0355488
6.06176e-07
2.37921e-05
0.0337624
3.9307e-07
2.18477e-05
0.0312926
1.9722e-05
0.0283554
-1.73552e-09
-5.16084e-07
8.88206e-05
0.0762699
-3.95612e-10
-8.76111e-07
9.88884e-05
0.0841965
-7.32823e-07
0.000107857
0.0908413
-4.02443e-07
0.000114839
0.0956357
-3.70629e-09
0.000118607
0.0981486
3.95129e-07
0.000118607
0.0981486
7.2586e-07
0.00011484
0.0956357
8.69653e-07
0.000107858
0.0908413
5.10109e-07
9.88902e-05
0.0841964
8.88219e-05
0.0762699
-5.3401e-09
3.20827e-07
0.000197734
0.113361
-6.75442e-10
2.78985e-07
0.00022033
0.125322
3.12039e-07
0.000240182
0.13531
2.19568e-07
0.000255285
0.142498
-6.53828e-09
0.000263412
0.14626
-2.32426e-07
0.000263412
0.14626
-3.2422e-07
0.000255287
0.142498
-2.8987e-07
0.000240184
0.13531
-3.29911e-07
0.000220332
0.125322
0.000197737
0.113361
-8.85021e-09
2.19755e-06
0.000326455
0.140375
-9.88976e-10
3.09194e-06
0.000363132
0.155509
2.94079e-06
0.000395089
0.168087
1.78371e-06
0.000419022
0.177112
-9.52748e-09
0.000431833
0.181828
-1.80242e-06
0.000431833
0.181828
-2.9584e-06
0.000419024
0.177112
-3.10783e-06
0.000395092
0.168087
-2.2114e-06
0.000363136
0.155509
0.00032646
0.140375
-1.24445e-08
5.27952e-06
0.000451189
0.158063
-1.32687e-09
7.68518e-06
0.000500187
0.175599
7.25767e-06
0.000542453
0.190094
4.35843e-06
0.000573674
0.20046
-1.26007e-08
0.000590283
0.205866
-4.38311e-06
0.000590284
0.205866
-7.28079e-06
0.000573677
0.20046
-7.70583e-06
0.000542458
0.190094
-5.29724e-06
0.000500193
0.175599
0.000451195
0.158063
-1.57663e-08
9.52284e-06
0.000549513
0.167185
-1.69377e-09
1.39853e-05
0.000606297
0.186439
1.31909e-05
0.000654661
0.20226
7.8991e-06
0.000689893
0.213532
-1.5658e-08
0.000708502
0.219397
-7.92971e-06
0.000708504
0.219397
-1.32194e-05
0.000689897
0.213532
-1.40105e-05
0.000654667
0.202259
-9.54415e-06
0.000606304
0.186439
0.00054952
0.167184
-1.87524e-08
1.47883e-05
0.000604456
0.168501
-2.10433e-09
2.17602e-05
0.000662909
0.188882
2.05035e-05
0.00071191
0.20552
1.22572e-05
0.000747076
0.217325
-1.85945e-08
0.000765495
0.223451
-1.22935e-05
0.000765496
0.223451
-2.05371e-05
0.00074708
0.217325
-2.17897e-05
0.000711916
0.20552
-1.48129e-05
0.000662917
0.188882
0.000604463
0.168501
-2.1369e-08
2.08953e-05
0.000607124
0.162778
-2.54282e-09
3.07058e-05
0.000661002
0.183789
2.88594e-05
0.000705304
0.200822
1.72136e-05
0.000736555
0.212847
-2.12666e-08
0.000752758
0.219067
-1.7255e-05
0.000752759
0.219067
-2.88976e-05
0.000736559
0.212847
-3.07391e-05
0.00070531
0.200822
-2.09227e-05
0.000661008
0.183788
0.000607131
0.162778
-2.35483e-08
2.777e-05
0.000557641
0.150777
-2.96339e-09
4.04803e-05
0.000602083
0.172031
3.78269e-05
0.000637605
0.189125