/*--------------------------------*- C++ -*----------------------------------*\
| =========                 |                                                 |
| \\      /  F ield         | OpenFOAM: The Open Source CFD Toolbox           |
|  \\    /   O peration     | Version:  2106                                  |
|   \\  /    A nd           | Website:  www.openfoam.com                      |
|    \\/     M anipulation  |                                                 |
\*---------------------------------------------------------------------------*/
FoamFile
{
    version     2.0;
    format      ascii;
    arch        "LSB;label=32;scalar=64";
    class       volVectorField;
    location    "0.66";
    object      U;
}
// * * * * * * * * * * * * * * * * * * * * * * * * * * * * * * * * * * * * * //

dimensions      [0 1 -1 0 0 0 0];

internalField   nonuniform List<vector> 
10000
(
(0.0625639 0.0737215 0.345104)
(0.0533595 0.0838417 0.359584)
(0.0398498 0.0929932 0.370948)
(0.0247213 0.0993756 0.378796)
(0.00837795 0.102675 0.382785)
(-0.00837796 0.102675 0.382785)
(-0.0247213 0.0993756 0.378796)
(-0.0398498 0.0929932 0.370948)
(-0.0533596 0.0838417 0.359584)
(-0.0625639 0.0737215 0.345104)
(0.172064 0.204135 0.727841)
(0.145245 0.231379 0.74749)
(0.108434 0.25534 0.762128)
(0.0670886 0.271927 0.772025)
(0.0227093 0.280482 0.776974)
(-0.0227093 0.280482 0.776974)
(-0.0670886 0.271927 0.772025)
(-0.108434 0.25534 0.762128)
(-0.145245 0.231379 0.74749)
(-0.172064 0.204135 0.727841)
(0.222641 0.264366 0.923748)
(0.185834 0.296077 0.939574)
(0.137851 0.323767 0.950637)
(0.0848673 0.34271 0.957939)
(0.0286568 0.352417 0.961521)
(-0.0286568 0.352417 0.961521)
(-0.0848674 0.34271 0.957939)
(-0.137851 0.323767 0.950637)
(-0.185834 0.296077 0.939574)
(-0.222641 0.264366 0.923748)
(0.237665 0.281751 1.02286)
(0.196431 0.311632 1.03336)
(0.144812 0.337778 1.04003)
(0.08874 0.355464 1.04429)
(0.0298966 0.364468 1.04632)
(-0.0298967 0.364468 1.04632)
(-0.08874 0.355464 1.04429)
(-0.144812 0.337778 1.04003)
(-0.196431 0.311632 1.03336)
(-0.237665 0.281751 1.02286)
(0.235731 0.278962 1.07121)
(0.193233 0.304964 1.07716)
(0.141705 0.327852 1.08029)
(0.0864879 0.343202 1.08217)
(0.0290817 0.350968 1.08301)
(-0.0290818 0.350968 1.08301)
(-0.086488 0.343202 1.08217)
(-0.141705 0.327852 1.08029)
(-0.193233 0.304964 1.07716)
(-0.235732 0.278962 1.07121)
(0.224728 0.265457 1.09229)
(0.18282 0.286866 1.09487)
(0.133434 0.305864 1.09552)
(0.0811393 0.318531 1.09577)
(0.0272353 0.324903 1.09582)
(-0.0272354 0.324903 1.09582)
(-0.0811395 0.318531 1.09577)
(-0.133434 0.305864 1.09552)
(-0.18282 0.286866 1.09487)
(-0.224728 0.265457 1.09229)
(0.208396 0.245536 1.0989)
(0.16825 0.262114 1.09918)
(0.122249 0.27697 1.09826)
(0.0740778 0.286857 1.0975)
(0.0248233 0.291809 1.09707)
(-0.0248235 0.291809 1.09707)
(-0.0740779 0.286857 1.0975)
(-0.122249 0.27697 1.09826)
(-0.16825 0.262114 1.09918)
(-0.208396 0.245536 1.0989)
(0.189064 0.221924 1.09821)
(0.151467 0.233714 1.09703)
(0.109591 0.244417 1.09523)
(0.0661909 0.251575 1.09392)
(0.0221454 0.25516 1.09324)
(-0.0221456 0.25516 1.09324)
(-0.0661911 0.251575 1.09392)
(-0.109591 0.244417 1.09523)
(-0.151467 0.233714 1.09703)
(-0.189064 0.221924 1.09821)
(0.168266 0.19641 1.09423)
(0.133842 0.203597 1.09216)
(0.0964466 0.210273 1.08995)
(0.05807 0.214868 1.0884)
(0.0193988 0.217189 1.08761)
(-0.019399 0.217189 1.08761)
(-0.0580701 0.214868 1.0884)
(-0.0964468 0.210273 1.08995)
(-0.133843 0.203597 1.09216)
(-0.168266 0.19641 1.09423)
(0.147164 0.170643 1.08918)
(0.116577 0.17174 1.08665)
(0.0834236 0.175018 1.08429)
(0.0500437 0.177406 1.0827)
(0.0166879 0.178634 1.08191)
(-0.0166881 0.178634 1.08191)
(-0.0500439 0.177406 1.0827)
(-0.0834238 0.175018 1.08429)
(-0.116577 0.17174 1.08665)
(-0.147164 0.170642 1.08918)
(0.0111956 0.014301 0.266532)
(0.00940585 0.0175918 0.278794)
(0.00710222 0.0202353 0.288835)
(0.00449592 0.0220476 0.295825)
(0.00153828 0.0229918 0.299403)
(-0.0015383 0.0229918 0.299403)
(-0.00449594 0.0220476 0.295825)
(-0.00710224 0.0202353 0.288835)
(-0.00940587 0.0175918 0.278794)
(-0.0111956 0.014301 0.266532)
(0.0544178 0.0658431 0.629526)
(0.0467283 0.0792179 0.651471)
(0.0357624 0.0906784 0.66907)
(0.0226092 0.098799 0.681173)
(0.00773704 0.103062 0.687316)
(-0.00773711 0.103062 0.687316)
(-0.0226092 0.098799 0.681173)
(-0.0357625 0.0906784 0.66907)
(-0.0467283 0.0792178 0.651471)
(-0.0544179 0.065843 0.629526)
(0.0977874 0.116801 0.876488)
(0.0834304 0.138139 0.90031)
(0.0635157 0.156452 0.918995)
(0.0399145 0.169376 0.93169)
(0.0136186 0.176126 0.938083)
(-0.0136187 0.176126 0.938083)
(-0.0399146 0.169376 0.93169)
(-0.0635157 0.156452 0.918995)
(-0.0834305 0.138139 0.90031)
(-0.0977875 0.116801 0.876488)
(0.133873 0.158726 1.04425)
(0.113249 0.184859 1.06625)
(0.0856626 0.20718 1.08309)
(0.0535272 0.222821 1.09438)
(0.0182114 0.230944 1.10003)
(-0.0182115 0.230944 1.10003)
(-0.0535273 0.222821 1.09438)
(-0.0856628 0.20718 1.08309)
(-0.113249 0.184859 1.06625)
(-0.133873 0.158726 1.04425)
(0.159712 0.188286 1.1573)
(0.133952 0.216156 1.17591)
(0.100689 0.239802 1.18978)
(0.0625928 0.256251 1.19897)
(0.0212411 0.264747 1.20352)
(-0.0212413 0.264747 1.20352)
(-0.062593 0.256251 1.19897)
(-0.100689 0.239801 1.18978)
(-0.133953 0.216156 1.17591)
(-0.159712 0.188286 1.1573)
(0.175349 0.205652 1.23235)
(0.145825 0.232773 1.24717)
(0.108953 0.255583 1.25789)
(0.0674071 0.271345 1.26488)
(0.0228204 0.279443 1.26832)
(-0.0228207 0.279443 1.26832)
(-0.0674073 0.271345 1.26488)
(-0.108953 0.255583 1.25789)
(-0.145825 0.232773 1.24717)
(-0.175349 0.205652 1.23235)
(0.181842 0.212168 1.28123)
(0.149934 0.23664 1.29246)
(0.111368 0.25698 1.30031)
(0.0685904 0.270951 1.30535)
(0.0231689 0.278096 1.3078)
(-0.0231692 0.278096 1.3078)
(-0.0685906 0.270951 1.30535)
(-0.111368 0.25698 1.30031)
(-0.149934 0.23664 1.29246)
(-0.181842 0.212168 1.28123)
(0.180531 0.209464 1.31227)
(0.147566 0.229907 1.32041)
(0.108987 0.246622 1.32588)
(0.0668387 0.25805 1.32932)
(0.0225293 0.263875 1.33097)
(-0.0225297 0.263875 1.33097)
(-0.066839 0.25805 1.32932)
(-0.108988 0.246622 1.32588)
(-0.147566 0.229907 1.32041)
(-0.180532 0.209464 1.31227)
(0.172876 0.199213 1.33132)
(0.140138 0.214694 1.33697)
(0.102916 0.226994 1.34061)
(0.0628458 0.235421 1.34283)
(0.0211385 0.239713 1.34387)
(-0.0211389 0.239713 1.34387)
(-0.0628461 0.235421 1.34283)
(-0.102917 0.226994 1.34061)
(-0.140138 0.214694 1.33697)
(-0.172876 0.199213 1.33132)
(0.160442 0.184223 1.34249)
(0.129196 0.192151 1.34631)
(0.0941035 0.199688 1.34857)
(0.0571751 0.204886 1.34989)
(0.019184 0.207531 1.35048)
(-0.0191844 0.207531 1.35048)
(-0.0571755 0.204886 1.34989)
(-0.0941038 0.199688 1.34857)
(-0.129196 0.192151 1.34631)
(-0.160442 0.184223 1.34249)
(0.0011219 0.00125289 0.157644)
(0.00113307 0.00159996 0.165944)
(0.000883263 0.00200811 0.172875)
(0.000591241 0.00231044 0.177781)
(0.00020602 0.00247797 0.18032)
(-0.000206044 0.00247797 0.18032)
(-0.000591264 0.00231043 0.177781)
(-0.000883284 0.0020081 0.172875)
(-0.00113309 0.00159995 0.165944)
(-0.00112191 0.00125288 0.157644)
(0.0180174 0.020907 0.441644)
(0.0162031 0.0255065 0.461846)
(0.0126813 0.0298347 0.478437)
(0.00814464 0.0330316 0.490081)
(0.00280647 0.0347489 0.496075)
(-0.00280654 0.0347489 0.496075)
(-0.00814471 0.0330316 0.490081)
(-0.0126813 0.0298347 0.478437)
(-0.0162032 0.0255064 0.461846)
(-0.0180174 0.020907 0.441644)
(0.0410699 0.0478048 0.685215)
(0.0362732 0.0574336 0.712792)
(0.0281803 0.0662163 0.735077)
(0.0179512 0.0726385 0.750589)
(0.00616344 0.0760585 0.758533)
(-0.00616357 0.0760585 0.758533)
(-0.0179513 0.0726384 0.750589)
(-0.0281805 0.0662163 0.735077)
(-0.0362733 0.0574335 0.712792)
(-0.04107 0.0478047 0.685215)
(0.0659415 0.0768162 0.887832)
(0.057477 0.0909948 0.919011)
(0.044324 0.10368 0.943789)
(0.0280543 0.112859 0.960891)
(0.00960311 0.117711 0.969605)
(-0.00960329 0.117711 0.969605)
(-0.0280544 0.112859 0.960891)
(-0.0443241 0.10368 0.943789)
(-0.0574772 0.0909947 0.919011)
(-0.0659416 0.0768161 0.887832)
(0.0881605 0.102582 1.05292)
(0.0759722 0.119843 1.08492)
(0.0581714 0.135058 1.10992)
(0.036612 0.145961 1.12702)
(0.0124984 0.151688 1.1357)
(-0.0124987 0.151688 1.1357)
(-0.0366123 0.145961 1.12702)
(-0.0581716 0.135058 1.10992)
(-0.0759724 0.119843 1.08492)
(-0.0881606 0.102582 1.05292)
(0.105484 0.122424 1.18539)
(0.0899484 0.141015 1.21632)
(0.0684019 0.157179 1.24008)
(0.0428269 0.16866 1.2562)
(0.014583 0.174654 1.26433)
(-0.0145833 0.174654 1.26433)
(-0.0428272 0.16866 1.2562)
(-0.0684022 0.157179 1.24008)
(-0.0899486 0.141015 1.21632)
(-0.105485 0.122424 1.18539)
(0.117063 0.135373 1.29037)
(0.0988089 0.153608 1.31908)
(0.0746361 0.169228 1.34077)
(0.0464976 0.180232 1.35538)
(0.0157942 0.185947 1.36271)
(-0.0157946 0.185947 1.36271)
(-0.046498 0.180232 1.35538)
(-0.0746365 0.169228 1.34077)
(-0.0988092 0.153608 1.31908)
(-0.117064 0.135373 1.29037)
(0.122773 0.141319 1.37262)
(0.102587 0.157723 1.39853)
(0.0769758 0.171525 1.41781)
(0.0477222 0.181177 1.43069)
(0.0161712 0.186165 1.43712)
(-0.0161716 0.186165 1.43712)
(-0.0477226 0.181177 1.43069)
(-0.0769761 0.171525 1.41781)
(-0.102587 0.157723 1.39853)
(-0.122773 0.141319 1.37262)
(0.123013 0.140701 1.43626)
(0.101774 0.154093 1.45924)
(0.0758362 0.165034 1.47609)
(0.0467739 0.172652 1.48723)
(0.0158093 0.176573 1.49277)
(-0.0158097 0.176573 1.49277)
(-0.0467743 0.172652 1.48723)
(-0.0758366 0.165034 1.47609)
(-0.101774 0.154093 1.45924)
(-0.123013 0.140701 1.43626)
(0.1186 0.135331 1.48463)
(0.0971656 0.14338 1.50519)
(0.0716894 0.15066 1.51969)
(0.043942 0.155702 1.52915)
(0.0148069 0.158283 1.53381)
(-0.0148073 0.158283 1.53381)
(-0.0439424 0.155702 1.52915)
(-0.0716898 0.15066 1.51969)
(-0.097166 0.14338 1.50519)
(-0.1186 0.135331 1.48463)
(0.000713198 0.000936669 0.137907)
(0.000557468 0.00117445 0.144715)
(0.000381783 0.00134309 0.150258)
(0.000236767 0.0014429 0.154149)
(7.92821e-05 0.00149286 0.156156)
(-7.93048e-05 0.00149285 0.156156)
(-0.000236789 0.00144289 0.154149)
(-0.000381802 0.00134308 0.150258)
(-0.000557486 0.00117444 0.144715)
(-0.000713212 0.000936657 0.137907)
(0.00703968 0.0084174 0.395427)
(0.00611311 0.0103752 0.413492)
(0.00470097 0.0120694 0.428117)
(0.00299923 0.0132856 0.438353)
(0.00103004 0.0139327 0.443621)
(-0.00103011 0.0139327 0.443621)
(-0.0029993 0.0132856 0.438353)
(-0.00470103 0.0120693 0.428117)
(-0.00611317 0.0103752 0.413492)
(-0.00703973 0.00841737 0.395427)
(0.0172649 0.0203853 0.628559)
(0.0150614 0.0248205 0.655228)
(0.0116566 0.028713 0.676651)
(0.00742631 0.0315391 0.691583)
(0.00255034 0.0330425 0.699247)
(-0.00255046 0.0330425 0.699247)
(-0.00742643 0.0315391 0.691583)
(-0.0116567 0.028713 0.676651)
(-0.0150615 0.0248205 0.655228)
(-0.017265 0.0203853 0.628559)
(0.029622 0.0347779 0.835392)
(0.0257572 0.0418382 0.867982)
(0.0199086 0.048034 0.893916)
(0.0126434 0.0525278 0.911902)
(0.00433589 0.054911 0.921105)
(-0.00433607 0.054911 0.921105)
(-0.0126435 0.0525277 0.911902)
(-0.0199088 0.0480339 0.893915)
(-0.0257573 0.0418381 0.867982)
(-0.0296221 0.0347778 0.835392)
(0.0420604 0.049161 1.01588)
(0.0363474 0.058395 1.05197)
(0.0279814 0.0664524 1.08039)
(0.0176999 0.0722674 1.09999)
(0.00605841 0.0753382 1.10999)
(-0.00605865 0.0753382 1.10999)
(-0.0177001 0.0722673 1.09999)
(-0.0279816 0.0664524 1.08039)
(-0.0363475 0.058395 1.05197)
(-0.0420606 0.0491609 1.01588)
(0.0530894 0.0617773 1.1712)
(0.0455303 0.0723866 1.20876)
(0.034866 0.0815577 1.238)
(0.0219584 0.0881327 1.25807)
(0.00749993 0.0915881 1.26827)
(-0.00750022 0.0915881 1.26827)
(-0.0219587 0.0881327 1.25807)
(-0.0348662 0.0815577 1.238)
(-0.0455305 0.0723865 1.20876)
(-0.0530896 0.0617773 1.1712)
(0.0617237 0.0714871 1.30313)
(0.0524839 0.082518 1.34055)
(0.0399504 0.0919326 1.36937)
(0.025044 0.098632 1.38903)
(0.00853419 0.102135 1.39899)
(-0.00853453 0.102135 1.39899)
(-0.0250443 0.098632 1.38903)
(-0.0399507 0.0919326 1.36937)
(-0.0524842 0.082518 1.34055)
(-0.0617239 0.0714871 1.30313)
(0.0673719 0.0776087 1.41371)
(0.056761 0.0880873 1.44983)
(0.0429286 0.0968841 1.47734)
(0.0267806 0.103093 1.496)
(0.00910384 0.106323 1.50542)
(-0.00910423 0.106323 1.50542)
(-0.026781 0.103093 1.496)
(-0.0429289 0.096884 1.47734)
(-0.0567613 0.0880873 1.44983)
(-0.0673722 0.0776087 1.41371)
(0.0698389 0.0798792 1.50493)
(0.0582784 0.0889263 1.53906)
(0.0437629 0.0963083 1.56475)
(0.0271537 0.101481 1.58203)
(0.00920553 0.104157 1.5907)
(-0.00920596 0.104157 1.5907)
(-0.0271542 0.101481 1.58203)
(-0.0437633 0.0963082 1.56475)
(-0.0582787 0.0889262 1.53906)
(-0.0698391 0.0798791 1.50493)
(0.0693054 0.0790869 1.57846)
(0.0572266 0.0850986 1.61088)
(0.0425357 0.0903238 1.63437)
(0.0262168 0.0939506 1.64995)
(0.00885841 0.0958123 1.65771)
(-0.00885886 0.0958123 1.65771)
(-0.0262172 0.0939506 1.64995)
(-0.0425361 0.0903238 1.63437)
(-0.0572269 0.0850986 1.61088)
(-0.0693057 0.0790868 1.57846)
(0.000130277 0.000142459 0.126986)
(0.0001207 0.000186741 0.133329)
(8.91812e-05 0.000232127 0.138484)
(6.10066e-05 0.000263939 0.142109)
(2.1067e-05 0.000281975 0.143981)
(-2.10865e-05 0.000281973 0.143981)
(-6.10254e-05 0.000263935 0.142109)
(-8.91984e-05 0.000232121 0.138484)
(-0.000120716 0.000186732 0.133329)
(-0.00013029 0.000142449 0.126986)
(0.00250937 0.00290255 0.368242)
(0.00224454 0.00359836 0.385492)
(0.00175809 0.00423924 0.399465)
(0.00113627 0.00471609 0.409271)
(0.000392342 0.00497493 0.414324)
(-0.000392405 0.00497492 0.414324)
(-0.00113634 0.00471607 0.409271)
(-0.00175815 0.00423922 0.399465)
(-0.00224459 0.00359833 0.385491)
(-0.00250942 0.00290252 0.368242)
(0.00683572 0.00793 0.591909)
(0.00607329 0.00972152 0.61809)
(0.00476042 0.0113485 0.639186)
(0.00305923 0.0125589 0.653949)
(0.00105474 0.0132113 0.661543)
(-0.00105485 0.0132113 0.661543)
(-0.00305933 0.0125589 0.653949)
(-0.00476052 0.0113485 0.639186)
(-0.00607338 0.00972148 0.618089)
(-0.00683579 0.00792996 0.591908)
(0.0125459 0.0145567 0.796486)
(0.0110736 0.0176509 0.829537)
(0.00865467 0.0204348 0.855986)
(0.00553819 0.0224955 0.874431)
(0.00190611 0.0236006 0.883899)
(-0.00190627 0.0236006 0.883899)
(-0.00553834 0.0224955 0.87443)
(-0.00865481 0.0204348 0.855986)
(-0.0110738 0.0176508 0.829537)
(-0.012546 0.0145566 0.796485)
(0.018765 0.0217375 0.981237)
(0.0164433 0.0260483 1.01914)
(0.012794 0.029891 1.04924)
(0.00815251 0.0327165 1.07014)
(0.00280045 0.0342243 1.08084)
(-0.00280066 0.0342243 1.08084)
(-0.00815271 0.0327165 1.07014)
(-0.0127942 0.029891 1.04924)
(-0.0164435 0.0260483 1.01914)
(-0.0187651 0.0217375 0.981237)
(0.0247239 0.0285596 1.14604)
(0.0214932 0.0337795 1.18693)
(0.0166326 0.0383828 1.21911)
(0.0105517 0.0417423 1.24136)
(0.00361686 0.0435259 1.25273)
(-0.00361712 0.0435259 1.25273)
(-0.0105519 0.0417423 1.24136)
(-0.0166329 0.0383828 1.21911)
(-0.0214934 0.0337795 1.18693)
(-0.0247241 0.0285595 1.14604)
(0.0298076 0.0343023 1.2912)
(0.0256879 0.0399807 1.33341)
(0.0197575 0.0449232 1.36632)
(0.0124752 0.0485011 1.38898)
(0.0042663 0.0503904 1.40053)
(-0.00426661 0.0503904 1.40053)
(-0.0124755 0.0485011 1.38898)
(-0.0197578 0.0449232 1.36632)
(-0.0256881 0.0399806 1.33341)
(-0.0298078 0.0343022 1.2912)
(0.0335626 0.0384347 1.41726)
(0.0286544 0.0440515 1.4594)
(0.0218922 0.0488618 1.49196)
(0.0137534 0.0523119 1.51426)
(0.00469151 0.0541232 1.52559)
(-0.00469185 0.0541232 1.52559)
(-0.0137538 0.0523119 1.51426)
(-0.0218925 0.0488618 1.49196)
(-0.0286547 0.0440515 1.4594)
(-0.0335628 0.0384347 1.41726)
(0.0357447 0.0406512 1.5248)
(0.0302124 0.0456951 1.56593)
(0.0229051 0.0498924 1.59734)
(0.0143056 0.0528731 1.61869)
(0.00486539 0.0544268 1.62946)
(-0.00486577 0.0544268 1.62946)
(-0.014306 0.0528731 1.61869)
(-0.0229055 0.0498924 1.59734)
(-0.0302127 0.0456951 1.56592)
(-0.0357449 0.0406512 1.5248)
(0.0363255 0.0412587 1.61421)
(0.0303282 0.0448229 1.65447)
(0.0227368 0.0479066 1.68406)
(0.0140957 0.050065 1.70389)
(0.00477626 0.0511789 1.71382)
(-0.00477666 0.0511789 1.71382)
(-0.014096 0.050065 1.70389)
(-0.0227371 0.0479066 1.68406)
(-0.0303285 0.0448229 1.65447)
(-0.0363258 0.0412587 1.61421)
(7.94719e-05 0.000107266 0.124028)
(5.5635e-05 0.000136075 0.130172)
(3.40997e-05 0.000152758 0.135136)
(2.08522e-05 0.000160999 0.13862)
(6.7706e-06 0.000164942 0.140416)
(-6.7864e-06 0.000164941 0.140416)
(-2.08678e-05 0.000160995 0.13862)
(-3.41134e-05 0.000152752 0.135136)
(-5.56476e-05 0.000136068 0.130172)
(-7.94824e-05 0.000107257 0.124028)
(0.00103712 0.00123858 0.35977)
(0.000890846 0.00153626 0.376575)
(0.000681269 0.00178679 0.390131)
(0.000435058 0.00196661 0.399634)
(0.000149324 0.00206277 0.404528)
(-0.000149376 0.00206277 0.404528)
(-0.000435108 0.0019666 0.399634)
(-0.000681315 0.00178677 0.390131)
(-0.000890887 0.00153624 0.376575)
(-0.00103716 0.00123856 0.35977)
(0.00285838 0.00336458 0.57953)
(0.00249631 0.00413857 0.605282)
(0.00193816 0.00481391 0.62598)
(0.00124005 0.00530961 0.640462)
(0.000426665 0.00557549 0.647913)
(-0.000426755 0.00557549 0.647913)
(-0.00124014 0.0053096 0.640462)
(-0.00193824 0.00481389 0.62598)
(-0.00249638 0.00413854 0.605282)
(-0.00285844 0.00336454 0.57953)
(0.00535803 0.00626784 0.782585)
(0.00469247 0.0076413 0.815525)
(0.00365455 0.00885178 0.841866)
(0.0023361 0.00974383 0.86025)
(0.000803734 0.0102218 0.869694)
(-0.000803865 0.0102218 0.869694)
(-0.00233623 0.00974382 0.86025)
(-0.00365467 0.00885175 0.841865)
(-0.00469258 0.00764126 0.815524)
(-0.00535811 0.0062678 0.782585)
(0.00821144 0.00956141 0.96844)
(0.00717527 0.0115365 1.00681)
(0.00558123 0.0132777 1.0373)
(0.0035593 0.0145581 1.05852)
(0.00122331 0.0152423 1.06941)
(-0.00122348 0.0152423 1.06941)
(-0.00355947 0.0145581 1.05852)
(-0.00558138 0.0132776 1.0373)
(-0.00717541 0.0115365 1.00681)
(-0.00821156 0.00956137 0.96844)
(0.0110879 0.0128537 1.13682)
(0.00964085 0.0153232 1.17892)
(0.00747284 0.0174884 1.21214)
(0.00474988 0.0190729 1.23518)
(0.0016299 0.0199161 1.24697)
(-0.00163011 0.0199161 1.24697)
(-0.00475009 0.0190728 1.23518)
(-0.00747303 0.0174884 1.21214)
(-0.00964102 0.0153232 1.17892)
(-0.0110881 0.0128537 1.13682)
(0.0136821 0.0157867 1.28763)
(0.0118158 0.0185574 1.33186)
(0.00911349 0.0209631 1.36649)
(0.00576936 0.0227116 1.39042)
(0.00197576 0.0236377 1.40264)
(-0.00197601 0.0236377 1.40264)
(-0.00576961 0.0227116 1.39042)
(-0.00911371 0.0209631 1.36649)
(-0.011816 0.0185574 1.33186)
(-0.0136823 0.0157867 1.28763)
(0.0157363 0.0180568 1.42086)
(0.0134796 0.0208803 1.46578)
(0.0103344 0.0232981 1.50069)
(0.00651164 0.02504 1.52471)
(0.00222464 0.0259574 1.53693)
(-0.00222493 0.0259574 1.53693)
(-0.00651192 0.02504 1.52471)
(-0.0103347 0.023298 1.50069)
(-0.0134799 0.0208803 1.46578)
(-0.0157365 0.0180568 1.42086)
(0.0170806 0.0194518 1.53642)
(0.0144951 0.0220646 1.58101)
(0.011031 0.0242428 1.6153)
(0.00691056 0.0257956 1.63871)
(0.00235397 0.0266074 1.65055)
(-0.00235429 0.0266074 1.65055)
(-0.00691087 0.0257956 1.63871)
(-0.0110312 0.0242427 1.6153)
(-0.0144953 0.0220646 1.58101)
(-0.0170808 0.0194518 1.53642)
(0.0176507 0.0200708 1.63402)
(0.0147951 0.0219994 1.67838)
(0.0111349 0.0236533 1.71122)
(0.00692364 0.0248143 1.73332)
(0.00234954 0.0254148 1.74441)
(-0.00234987 0.0254148 1.74441)
(-0.00692397 0.0248143 1.73332)
(-0.0111352 0.0236533 1.71122)
(-0.0147954 0.0219994 1.67838)
(-0.0176509 0.0200707 1.63402)
(1.21287e-05 1.49201e-05 0.122536)
(8.23996e-06 2.04094e-05 0.128613)
(4.60537e-06 2.40112e-05 0.133519)
(3.39583e-06 2.60737e-05 0.136963)
(1.13692e-06 2.72715e-05 0.138739)
(-1.14905e-06 2.72706e-05 0.138739)
(-3.40759e-06 2.6071e-05 0.136963)
(-4.61622e-06 2.4007e-05 0.133519)
(-8.24984e-06 2.04037e-05 0.128613)
(-1.21367e-05 1.49134e-05 0.122536)
(0.000359389 0.000419945 0.355553)
(0.00031374 0.00052423 0.372188)
(0.000242998 0.000615207 0.385601)
(0.000156862 0.000682431 0.395005)
(5.40912e-05 0.000718961 0.39985)
(-5.41311e-05 0.000718959 0.39985)
(-0.000156901 0.000682424 0.395005)
(-0.000243034 0.000615195 0.3856)
(-0.000313772 0.000524214 0.372188)
(-0.000359415 0.000419926 0.355553)
(0.00107376 0.00124935 0.573228)
(0.000947074 0.00154535 0.598793)
(0.000741351 0.00180866 0.61934)
(0.000477262 0.00200533 0.633724)
(0.000164679 0.0021118 0.641125)
(-0.000164749 0.00211179 0.641125)
(-0.00047733 0.00200532 0.633723)
(-0.000741414 0.00180865 0.61934)
(-0.000947131 0.00154533 0.598793)
(-0.00107381 0.00124932 0.573228)
(0.00210585 0.00244377 0.775161)
(0.00185944 0.00299625 0.808021)
(0.00145817 0.00349001 0.834311)
(0.000936807 0.0038589 0.852676)
(0.000323082 0.00405803 0.862115)
(-0.000323183 0.00405802 0.862115)
(-0.000936906 0.00385888 0.852676)
(-0.00145827 0.00348999 0.834311)
(-0.00185952 0.00299622 0.808021)
(-0.00210592 0.00244374 0.775161)
(0.00333524 0.00385882 0.961031)
(0.00293727 0.00468396 0.999553)
(0.00229989 0.00542025 1.0302)
(0.0014737 0.00596844 1.05156)
(0.000507678 0.00626337 1.06252)
(-0.000507812 0.00626337 1.06252)
(-0.00147383 0.00596843 1.05156)
(-0.00230001 0.00542022 1.0302)
(-0.00293737 0.00468393 0.999552)
(-0.00333533 0.00385878 0.96103)
(0.00462527 0.00533218 1.13059)
(0.00405358 0.00639684 1.17316)
(0.00316297 0.00734131 1.20682)
(0.00202003 0.00804063 1.23022)
(0.000694782 0.00841533 1.2422)
(-0.000694948 0.00841533 1.2422)
(-0.00202019 0.00804062 1.23021)
(-0.00316312 0.00734128 1.20682)
(-0.00405371 0.00639681 1.17316)
(-0.00462538 0.00533214 1.13058)
(0.00583814 0.00670184 1.28362)
(0.00508296 0.00792956 1.32871)
(0.00394692 0.00900827 1.36412)
(0.0025106 0.00980128 1.38864)
(0.000861792 0.0102241 1.40118)
(-0.000861989 0.0102241 1.40118)
(-0.00251079 0.00980127 1.38864)
(-0.00394709 0.00900825 1.36411)
(-0.00508312 0.00792953 1.32871)
(-0.00583827 0.00670181 1.28362)
(0.00684806 0.00781935 1.41993)
(0.00591501 0.00910192 1.46612)
(0.00456537 0.0102136 1.50212)
(0.00289019 0.0110232 1.52696)
(0.000989683 0.0114522 1.53962)
(-0.000989908 0.0114522 1.53962)
(-0.0028904 0.0110232 1.52696)
(-0.00456557 0.0102136 1.50212)
(-0.00591519 0.0091019 1.46611)
(-0.00684821 0.00781933 1.41993)
(0.00756392 0.00857245 1.53914)
(0.00647191 0.00978835 1.58537)
(0.00495691 0.0108137 1.62106)
(0.00311921 0.0115513 1.64548)
(0.0010648 0.0119389 1.65786)
(-0.00106505 0.0119389 1.65786)
(-0.00311945 0.0115513 1.64548)
(-0.00495714 0.0108137 1.62106)
(-0.00647211 0.00978833 1.58537)
(-0.00756409 0.00857243 1.53913)
(0.00793947 0.0089936 1.64062)
(0.00670276 0.00992234 1.687)
(0.00507406 0.0107174 1.72146)
(0.00316759 0.0112788 1.74471)
(0.00107697 0.0115703 1.75641)
(-0.00107724 0.0115703 1.75641)
(-0.00316785 0.0112788 1.74471)
(-0.0050743 0.0107174 1.72146)
(-0.00670298 0.00992233 1.687)
(-0.00793966 0.00899359 1.64062)
(7.67309e-06 1.22345e-05 0.122143)
(3.15008e-06 1.59638e-05 0.128194)
(5.85304e-07 1.70601e-05 0.133073)
(1.17315e-07 1.70734e-05 0.136498)
(-4.34535e-08 1.69767e-05 0.138264)
(3.4457e-08 1.6976e-05 0.138264)
(-1.26007e-07 1.70713e-05 0.136498)
(-5.93327e-07 1.70569e-05 0.133073)
(-3.15749e-06 1.59595e-05 0.128194)
(-7.67907e-06 1.22295e-05 0.122143)
(0.000137569 0.000167235 0.354269)
(0.000113956 0.000209122 0.370827)
(8.53633e-05 0.000242068 0.384166)
(5.41421e-05 0.00026525 0.393517)
(1.85064e-05 0.000277575 0.398334)
(-1.85361e-05 0.000277573 0.398334)
(-5.41707e-05 0.000265244 0.393517)
(-8.53898e-05 0.000242059 0.384166)
(-0.000113981 0.00020911 0.370827)
(-0.000137588 0.000167221 0.354269)
(0.000413996 0.000489974 0.571165)
(0.00035741 0.000607947 0.596632)
(0.000276188 0.000708424 0.617088)
(0.00017662 0.000782203 0.631407)
(6.07477e-05 0.000821845 0.638775)
(-6.07999e-05 0.000821842 0.638775)
(-0.000176671 0.000782195 0.631407)
(-0.000276235 0.000708411 0.617088)
(-0.000357453 0.000607929 0.596632)
(-0.000414031 0.000489953 0.571164)
(0.000824214 0.000965327 0.772617)
(0.000720246 0.00118868 0.805409)
(0.000561557 0.00138385 0.831637)
(0.000359807 0.00152867 0.849961)
(0.000123936 0.00160664 0.85938)
(-0.000124012 0.00160664 0.85938)
(-0.00035988 0.00152866 0.849961)
(-0.000561625 0.00138383 0.831637)
(-0.000720307 0.00118866 0.805409)
(-0.000824266 0.000965302 0.772617)
(0.00132832 0.00154558 0.958426)
(0.001164 0.00188581 0.996968)
(0.000909355 0.00218563 1.02763)
(0.000582306 0.00240837 1.04901)
(0.000200549 0.00252817 1.05998)
(-0.000200649 0.00252816 1.05998)
(-0.000582403 0.00240836 1.04901)
(-0.000909446 0.00218561 1.02763)
(-0.00116409 0.00188579 0.996967)
(-0.00132839 0.00154555 0.958425)
(0.00187459 0.00216945 1.12839)
(0.0016398 0.00261773 1.17113)
(0.0012792 0.00301258 1.20493)
(0.000817384 0.00330503 1.22844)
(0.000281225 0.00346187 1.24048)
(-0.00028135 0.00346186 1.24048)
(-0.000817505 0.00330502 1.22844)
(-0.00127932 0.00301256 1.20493)
(-0.0016399 0.00261771 1.17113)
(-0.00187468 0.00216942 1.12839)
(0.00240557 0.00276934 1.28232)
(0.00209449 0.00329706 1.32774)
(0.00162796 0.00375895 1.36344)
(0.0010368 0.00409905 1.38818)
(0.000356126 0.00428065 1.40084)
(-0.000356273 0.00428065 1.40084)
(-0.00103695 0.00409904 1.38818)
(-0.0016281 0.00375894 1.36344)
(-0.00209461 0.00329703 1.32774)
(-0.00240567 0.00276931 1.28232)
(0.00286461 0.00327822 1.41992)
(0.00247747 0.00384069 1.46663)
(0.00191549 0.00432745 1.50309)
(0.00121462 0.0046827 1.52827)
(0.000416268 0.00487127 1.54111)
(-0.000416437 0.00487126 1.54111)
(-0.00121478 0.0046827 1.52827)
(-0.00191565 0.00432743 1.50309)
(-0.00247761 0.00384067 1.46663)
(-0.00286473 0.00327819 1.41991)
(0.00320709 0.0036408 1.54072)
(0.00274967 0.00418483 1.58767)
(0.00211053 0.00464371 1.62397)
(0.0013305 0.00497448 1.64884)
(0.000454604 0.00514854 1.66146)
(-0.00045479 0.00514854 1.66146)
(-0.00133068 0.00497447 1.64884)
(-0.0021107 0.0046437 1.62397)
(-0.00274983 0.00418482 1.58767)
(-0.00320722 0.00364078 1.54071)
(0.00340655 0.00386436 1.64395)
(0.00288229 0.00429111 1.69125)
(0.00218711 0.00465482 1.72644)
(0.0013679 0.00491213 1.75022)
(0.0004655 0.0050459 1.76219)
(-0.000465698 0.0050459 1.76219)
(-0.00136809 0.00491213 1.75022)
(-0.00218729 0.00465482 1.72644)
(-0.00288246 0.00429111 1.69124)
(-0.0034067 0.00386435 1.64395)
(-4.71417e-07 1.45157e-07 0.121968)
(-1.4943e-06 6.21363e-07 0.12801)
(-1.67736e-06 4.40566e-07 0.132881)
(-1.09248e-06 1.23009e-07 0.136301)
(-3.96042e-07 -5.73703e-08 0.138064)
(3.89627e-07 -5.7855e-08 0.138064)
(1.08628e-06 1.21574e-07 0.136301)
(1.67165e-06 4.38311e-07 0.132881)
(1.48901e-06 6.18338e-07 0.12801)
(4.67176e-07 1.41588e-07 0.121968)
(3.85689e-05 4.64286e-05 0.353709)
(3.1667e-05 5.90149e-05 0.370238)
(2.36942e-05 6.89487e-05 0.383551)
(1.51284e-05 7.60842e-05 0.392885)
(5.17846e-06 7.99301e-05 0.397692)
(-5.19966e-06 7.99287e-05 0.397692)
(-1.51489e-05 7.60801e-05 0.392885)
(-2.37131e-05 6.89424e-05 0.383551)
(-3.16844e-05 5.90064e-05 0.370238)
(-3.8583e-05 4.64186e-05 0.353708)
(0.000132608 0.000155698 0.57025)
(0.000114801 0.000195291 0.595678)
(8.91347e-05 0.00022933 0.616099)
(5.72816e-05 0.000254715 0.630394)
(1.97405e-05 0.000268469 0.637749)
(-1.97779e-05 0.000268467 0.637749)
(-5.73178e-05 0.000254709 0.630393)
(-8.91682e-05 0.000229321 0.616099)
(-0.000114832 0.000195278 0.595677)
(-0.000132633 0.000155683 0.57025)
(0.000281114 0.000327072 0.771451)
(0.000246894 0.000406419 0.804211)
(0.000193563 0.000476396 0.830411)
(0.00012458 0.000528993 0.848718)
(4.29976e-05 0.000557507 0.858128)
(-4.3052e-05 0.000557505 0.858128)
(-0.000124633 0.000528985 0.848717)
(-0.000193612 0.000476384 0.830411)
(-0.000246939 0.000406403 0.80421)
(-0.000281152 0.000327053 0.771451)
(0.00047179 0.000545732 0.957166)
(0.000415919 0.00067139 0.995705)
(0.000326835 0.000783125 1.02637)
(0.000210216 0.000867107 1.04775)
(7.25478e-05 0.000912562 1.05873)
(-7.26198e-05 0.000912559 1.05873)
(-0.000210286 0.000867098 1.04775)
(-0.0003269 0.000783111 1.02637)
(-0.000415978 0.000671372 0.995705)
(-0.00047184 0.000545712 0.957166)
(0.000686051 0.000789614 1.12723)
(0.000604095 0.000960214 1.17002)
(0.000474116 0.00111186 1.20387)
(0.000304298 0.0012254 1.22741)
(0.000104914 0.00128667 1.23948)
(-0.000105003 0.00128666 1.23948)
(-0.000304385 0.0012254 1.22741)
(-0.000474197 0.00111184 1.20387)
(-0.000604168 0.000960196 1.17002)
(-0.000686114 0.000789594 1.12723)
(0.000901467 0.00103232 1.28145)
(0.00079041 0.00123817 1.32699)
(0.000618152 0.00142004 1.3628)
(0.000395431 0.00155533 1.38763)
(0.000136108 0.00162799 1.40034)
(-0.000136214 0.00162799 1.40034)
(-0.000395534 0.00155533 1.38763)
(-0.000618248 0.00142003 1.3628)
(-0.000790497 0.00123816 1.32699)
(-0.000901543 0.0010323 1.28145)
(0.00109463 0.00124616 1.41952)
(0.000953593 0.00147035 1.46644)
(0.000741804 0.00166618 1.50309)
(0.000472417 0.00181045 1.5284)
(0.000162232 0.00188743 1.54132)
(-0.000162354 0.00188743 1.54132)
(-0.000472535 0.00181045 1.5284)
(-0.000741915 0.00166617 1.50308)
(-0.000953694 0.00147033 1.46644)
(-0.00109472 0.00124614 1.41952)
(0.0012461 0.00140732 1.54094)
(0.00107604 0.0016286 1.58819)
(0.000830722 0.0018168 1.62474)
(0.000525812 0.00195347 1.6498)
(0.000179994 0.00202571 1.66252)
(-0.000180129 0.0020257 1.66252)
(-0.000525942 0.00195347 1.6498)
(-0.000830845 0.0018168 1.62474)
(-0.00107616 0.00162859 1.58819)
(-0.0012462 0.00140731 1.54094)
(0.0013429 0.0015174 1.64489)
(0.00114324 0.00169572 1.69256)
(0.000872043 0.00184724 1.72808)
(0.000547345 0.00195495 1.75208)
(0.000186566 0.00201111 1.76417)
(-0.000186709 0.00201111 1.76417)
(-0.000547485 0.00195495 1.75208)
(-0.000872176 0.00184724 1.72808)
(-0.00114336 0.00169572 1.69256)
(-0.00134301 0.0015174 1.64489)
(2.80868e-09 7.57578e-07 0.121941)
(-8.45535e-07 1.13472e-06 0.12798)
(-1.04781e-06 9.63417e-07 0.132848)
(-7.61069e-07 6.73108e-07 0.136266)
(-2.83488e-07 4.87565e-07 0.138027)
(2.7903e-07 4.87253e-07 0.138027)
(7.56727e-07 6.7207e-07 0.136266)
(1.044e-06 9.61835e-07 0.132848)
(8.42034e-07 1.13274e-06 0.12798)
(-5.73862e-09 7.55174e-07 0.121941)
(1.08371e-05 1.42898e-05 0.353579)
(7.6041e-06 1.84207e-05 0.370097)
(5.0361e-06 2.10274e-05 0.383399)
(3.00457e-06 2.26679e-05 0.392724)
(9.8767e-07 2.3496e-05 0.397527)
(-1.0024e-06 2.34952e-05 0.397527)
(-3.01887e-06 2.26648e-05 0.392724)
(-5.04881e-06 2.10227e-05 0.383398)
(-7.61583e-06 1.84152e-05 0.370097)
(-1.08469e-05 1.42831e-05 0.353579)