/*--------------------------------*- C++ -*----------------------------------*\
| =========                 |                                                 |
| \\      /  F ield         | OpenFOAM: The Open Source CFD Toolbox           |
|  \\    /   O peration     | Version:  2106                                  |
|   \\  /    A nd           | Website:  www.openfoam.com                      |
|    \\/     M anipulation  |                                                 |
\*---------------------------------------------------------------------------*/
FoamFile
{
    version     2.0;
    format      ascii;
    arch        "LSB;label=32;scalar=64";
    class       surfaceScalarField;
    location    "0.07";
    object      phi;
}
// * * * * * * * * * * * * * * * * * * * * * * * * * * * * * * * * * * * * * //

dimensions      [0 3 -1 0 0 0 0];

oriented        oriented;

internalField   nonuniform List<scalar> 
29100
(
0.00118204
0.147844
0.0830893
-1.8144e-10
0.00146136
0.152456
0.0913346
0.00125559
0.155656
0.0982323
0.000715723
0.157771
0.103175
-1.13709e-09
0.158828
0.105751
-0.000715725
0.158828
0.105751
-0.0012556
0.157771
0.103175
-0.00146136
0.155656
0.0982323
-0.00118205
0.152456
0.0913346
0.147844
0.0830893
-4.02389e-09
0.00232509
0.19992
0.16091
-5.80221e-10
0.00323926
0.203655
0.174965
0.00289347
0.206019
0.18648
0.00167493
0.207422
0.194634
-2.69945e-09
0.208091
0.19885
-0.00167494
0.208091
0.19885
-0.00289348
0.207422
0.194634
-0.00323927
0.206019
0.18648
-0.0023251
0.203655
0.174965
0.19992
0.16091
-8.91118e-09
0.00289075
0.204108
0.191428
-7.93276e-10
0.0041002
0.205588
0.206943
0.0036847
0.206304
0.219443
0.00213454
0.206492
0.228206
-3.64632e-09
0.206529
0.232709
-0.00213455
0.206529
0.232709
-0.00368471
0.206492
0.228206
-0.00410021
0.206304
0.219443
-0.00289076
0.205588
0.206943
0.204108
0.191428
-1.31084e-08
0.00319408
0.184672
0.197945
-1.01047e-09
0.00446136
0.184113
0.213302
0.00399567
0.183404
0.225492
0.00230849
0.182606
0.233959
-4.46711e-09
0.18214
0.238286
-0.0023085
0.18214
0.238286
-0.00399568
0.182606
0.233959
-0.00446137
0.183404
0.225492
-0.0031941
0.184113
0.213302
0.184672
0.197945
-1.63668e-08
0.00327277
0.15556
0.190737
-1.19822e-09
0.00449704
0.153654
0.205336
0.00400947
0.152054
0.216778
0.00231088
0.15069
0.224662
-5.59605e-09
0.149943
0.228672
-0.00231089
0.149943
0.228672
-0.00400948
0.15069
0.224662
-0.00449705
0.152054
0.216778
-0.00327279
0.153654
0.205336
0.15556
0.190737
-1.9398e-08
0.00319669
0.124587
0.175871
-1.28822e-09
0.00433487
0.122029
0.189595
0.00384927
0.120052
0.200244
0.00221485
0.1185
0.207531
-7.60634e-09
0.117672
0.211225
-0.00221487
0.117672
0.211225
-0.00384929
0.1185
0.207531
-0.00433489
0.120052
0.200244
-0.00319671
0.122029
0.189595
0.124587
0.175871
-2.27433e-08
0.00304745
0.0957457
0.157084
-1.22595e-09
0.00408834
0.0930676
0.170037
0.00361769
0.0910806
0.180012
0.00207947
0.0896038
0.186802
-1.06329e-08
0.0888317
0.190234
-0.0020795
0.0888317
0.190234
-0.00361772
0.0896038
0.186802
-0.00408836
0.0910806
0.180012
-0.00304747
0.0930676
0.170037
0.0957456
0.157084
-2.64529e-08
0.00286786
0.0707672
0.136597
-6.64902e-10
0.00383036
0.068279
0.148951
0.00338483
0.0665015
0.158409
0.0019455
0.065251
0.164819
-1.46069e-08
0.0646137
0.168054
-0.00194553
0.0646137
0.168054
-0.00338486
0.065251
0.164819
-0.00383039
0.0665015
0.158409
-0.00286789
0.068279
0.148951
0.0707672
0.136597
-2.91961e-08
0.00270084
0.0501017
0.115647
-1.87776e-09
0.00362678
0.0479303
0.127555
0.00320657
0.0464901
0.136631
0.00184247
0.0455449
0.142758
-1.98737e-08
0.0450783
0.145843
-0.00184251
0.0450783
0.145843
-0.0032066
0.0455449
0.142758
-0.00362681
0.0464901
0.136631
-0.00270087
0.0479303
0.127555
0.0501017
0.115647
-2.90932e-08
0.00278898
0.0948626
-4.92286e-09
0.033328
0.00364966
0.106427
0.0317824
0.00317594
0.115208
0.0307691
0.00180709
0.121116
0.0301457
-2.62004e-08
0.124085
0.029841
-0.00180714
0.124085
0.029841
-0.00317599
0.121116
0.0301457
-0.0036497
0.115208
0.0307691
-0.00278901
0.106427
0.0317824
0.0948626
-3.00169e-08
0.0333279
-0.000240974
0.0330668
0.0502634
-1.53944e-10
-0.000238449
0.0358782
0.0554538
-0.000167083
0.0382671
0.0598939
-8.28226e-05
0.039967
0.0631235
-9.52824e-10
0.0408446
0.0648231
8.28202e-05
0.0408446
0.0648231
0.000167081
0.039967
0.0631235
0.000238446
0.0382671
0.0598939
0.00024097
0.0358782
0.0554538
0.0330668
0.0502634
-4.9932e-09
-1.41425e-05
0.0688535
0.125137
-2.37574e-11
0.00014356
0.0734406
0.137245
0.000204471
0.0772654
0.147421
0.000145497
0.0799174
0.154742
-2.75053e-09
0.0812712
0.158569
-0.000145503
0.0812712
0.158569
-0.000204478
0.0799174
0.154742
-0.000143568
0.0772654
0.147421
1.41328e-05
0.0734406
0.137245
0.0688535
0.125137
-1.16847e-08
0.000388233
0.0900867
0.169807
-1.03094e-10
0.00070914
0.0946835
0.185379
0.000717604
0.0984561
0.198244
0.000445846
0.100996
0.207399
-4.26156e-09
0.102275
0.212151
-0.000445855
0.102275
0.212151
-0.000717615
0.100996
0.207399
-0.000709153
0.0984561
0.198244
-0.000388247
0.0946835
0.185379
0.0900867
0.169807
-1.76485e-08
0.000806196
0.0971368
0.190089
-4.66977e-10
0.00125936
0.100776
0.206756
0.0012014
0.103715
0.220291
0.000722653
0.10562
0.229814
-5.83711e-09
0.10656
0.234724
-0.000722666
0.10656
0.234724
-0.00120141
0.10562
0.229814
-0.00125938
0.103715
0.220291
-0.000806215
0.100776
0.206756
0.0971368
0.190089
-2.24561e-08
0.00117178
0.0936387
0.193063
-8.85774e-10
0.00171634
0.0960501
0.209517
0.00159185
0.0979566
0.222661
0.000942005
0.0991231
0.231808
-7.89035e-09
0.09968
0.236494
-0.000942022
0.09968
0.236494
-0.00159187
0.0991231
0.231808
-0.00171636
0.0979567
0.222661
-0.0011718
0.0960501
0.209517
0.0936388
0.193063
-2.65584e-08
0.00145946
0.0835419
0.184509
-9.06343e-10
0.00206208
0.0848542
0.200189
0.00188013
0.0858474
0.212535
0.00110167
0.0863885
0.221044
-1.10269e-08
0.0866283
0.225379
-0.0011017
0.0866283
0.225379
-0.00188016
0.0863885
0.221044
-0.00206211
0.0858474
0.212535
-0.00145949
0.0848542
0.200189
0.0835419
0.184509
-2.96702e-08
0.00166597
0.070122
0.168838
-1.34146e-09
0.00230674
0.0706133
0.183638
0.00208256
0.0709299
0.195154
0.00121345
0.0710318
0.203027
-1.53143e-08
0.0710561
0.20702
-0.00121348
0.0710561
0.20702
-0.00208259
0.0710318
0.203027
-0.00230677
0.0709299
0.195154
-0.001666
0.0706133
0.183638
0.070122
0.168838
-3.23982e-08
0.00180037
0.055731
0.149187
-2.84287e-09
0.00247778
0.0556692
0.163217
0.00222976
0.0555535
0.174034
0.0012964
0.0554031
0.181382
-2.02217e-08
0.0553118
0.185094
-0.00129644
0.0553118
0.185094
-0.0022298
0.0554031
0.181382
-0.00247782
0.0555535
0.174034
-0.0018004
0.0556692
0.163217
0.055731
0.149187
-3.39455e-08
0.00190132
0.0418668
0.12761
-5.29533e-09
0.00263254
0.0414514
0.141042
0.00236961
0.0411266
0.15132
0.00137599
0.0408878
0.158267
-2.54772e-08
0.0407647
0.161766
-0.00137604
0.0407647
0.161766
-0.00236965
0.0408878
0.158267
-0.00263259
0.0411266
0.15132
-0.00190136
0.0414514
0.141042
0.0418668
0.127609
-3.40282e-08
0.00213069
0.10533
-7.91117e-09
0.0292682
0.0029098
0.118315
0.028785
0.00258783
0.128194
0.0284632
0.00149023
0.134839
0.0282619
-3.05183e-08
0.138179
0.0281611
-0.00149029
0.138179
0.0281611
-0.00258788
0.134839
0.0282619
-0.00290984
0.128194
0.0284632
-0.00213072
0.118315
0.028785
0.10533
-3.36901e-08
0.0292682
5.6686e-05
0.00701228
0.0431944
-1.74799e-10
5.83527e-05
0.0077387
0.0477134
4.83841e-05
0.00835557
0.0515483
2.69576e-05
0.00881237
0.0543326
-9.5772e-10
0.00905328
0.0557968
-2.69598e-05
0.00905328
0.0557968
-4.83866e-05
0.00881237
0.0543326
-5.83558e-05
0.00835557
0.0515483
-5.66896e-05
0.0077387
0.0477134
0.00701228
0.0431944
-4.51909e-09
0.000261843
0.0206455
0.111242
-2.94839e-10
0.00035174
0.0223793
0.122515
0.000311836
0.0238239
0.131992
0.000181133
0.0248547
0.138831
-2.52978e-09
0.0253911
0.142412
-0.000181139
0.0253911
0.142412
-0.000311842
0.0248547
0.138831
-0.000351747
0.0238239
0.131992
-0.000261852
0.0223793
0.122515
0.0206455
0.111242
-1.04989e-08
0.00048319
0.0333865
0.156582
-4.07824e-10
0.000678813
0.0356681
0.171895
0.000611796
0.0375324
0.184603
0.000357434
0.0388198
0.193688
-4.00016e-09
0.0394803
0.19842
-0.000357443
0.0394803
0.19842
-0.000611806
0.0388198
0.193688
-0.000678825
0.0375325
0.184603
-0.000483204
0.0356681
0.171895
0.0333865
0.156582
-1.58665e-08
0.000698557
0.0414793
0.181298
-7.33273e-10
0.000994326
0.0437518
0.198377
0.000903819
0.0455751
0.212339
0.000529107
0.046793
0.222215
-5.66597e-09
0.0474075
0.227326
-0.000529119
0.0474075
0.227326
-0.000903832
0.046793
0.222215
-0.000994342
0.0455751
0.212339
-0.000698575
0.0437518
0.198377
0.0414793
0.181298
-2.03146e-08
0.000894244
0.0443906
0.189258
-1.16851e-09
0.00127056
0.0462898
0.206603
0.00115719
0.0477849
0.220564
0.000677315
0.0487461
0.230335
-7.51103e-09
0.0492211
0.235358
-0.00067733
0.0492211
0.235358
-0.00115721
0.0487461
0.230335
-0.00127058
0.0477849
0.220564
-0.000894266
0.0462898
0.206603
0.0443906
0.189258
-2.43601e-08
0.00106435
0.042972
0.184863
-1.35188e-09
0.00149982
0.0443515
0.201692
0.00136392
0.0454105
0.215045
0.000797383
0.0460588
0.224298
-9.91764e-09
0.0463701
0.229027
-0.000797403
0.0463701
0.229027
-0.00136394
0.0460588
0.224298
-0.00149984
0.0454105
0.215045
-0.00106437
0.0443515
0.201692
0.0429721
0.184863
-2.75009e-08
0.00120249
0.0385163
0.172091
-1.96524e-09
0.0016809
0.0393799
0.188131
0.00152561
0.0400165
0.200703
0.000891038
0.0403795
0.209341
-1.29443e-08
0.0405468
0.213734
-0.000891064
0.0405468
0.213734
-0.00152564
0.0403796
0.209341
-0.00168093
0.0400165
0.200703
-0.00120252
0.0393799
0.188131
0.0385163
0.172091
-2.96114e-08
0.0013064
0.0322978
0.1541
-3.43434e-09
0.00182147
0.0327205
0.169362
0.00165266
0.0330134
0.181206
0.000965013
0.0331618
0.189287
-1.63492e-08
0.0332256
0.193381
-0.000965045
0.0332256
0.193381
-0.00165269
0.0331618
0.189287
-0.0018215
0.0330134
0.181206
-0.00130642
0.0327205
0.169362
0.0322978
0.1541
-2.9658e-08
0.0013916
0.025369
0.133147
-5.02254e-09
0.00194655
0.0254485
0.147759
0.00176605
0.0255082
0.159006
0.00103039
0.025528
0.166636
-1.97231e-08
0.0255338
0.170489
-0.00103043
0.0255338
0.170489
-0.00176608
0.025528
0.166636
-0.00194658
0.0255082
0.159006
-0.00139163
0.0254485
0.147759
0.025369
0.133147
-2.61934e-08
0.00153886
0.110711
-6.43566e-09
0.01845
0.00211703
0.124815
0.0183699
0.00190106
0.135597
0.018321
0.00110196
0.142873
0.0182933
-2.16885e-08
0.146536
0.0182787
-0.001102
0.146536
0.0182787
-0.00190109
0.142873
0.0182933
-0.00211706
0.135597
0.018321
-0.00153888
0.124815
0.0183699
0.110711
-1.98296e-08
0.0184501
-3.72292e-05
0.00286737
0.0403643
-1.57008e-10
-5.15696e-05
0.00314851
0.0445793
-4.33102e-05
0.00338698
0.048153
-2.42027e-05
0.00356122
0.0507522
-1.03074e-09
0.00365187
0.0521207
2.4201e-05
0.00365187
0.0521207
4.33079e-05
0.00356122
0.0507522
5.15669e-05
0.00338698
0.048153
3.72262e-05
0.00314851
0.0445793
0.00286738
0.0403643
-3.63493e-09
-3.07117e-05
0.00804211
0.106098
-1.47439e-10
-3.97113e-05
0.0087629
0.116909
-3.08602e-05
0.00937161
0.125999
-1.5607e-05
0.00980825
0.132568
-2.64789e-09
0.010035
0.136013
1.56022e-05
0.010035
0.136013
3.08542e-05
0.00980825
0.132568
3.97048e-05
0.00937161
0.125999
3.07044e-05
0.0087629
0.116909
0.00804211
0.106098
-8.69894e-09
2.06663e-05
0.0133298
0.151274
-2.94383e-10
3.89196e-05
0.0143967
0.166243
4.23773e-05
0.0152909
0.17868
2.82718e-05
0.0159195
0.187591
-3.59576e-09
0.0162441
0.192239
-2.82791e-05
0.0162441
0.192239
-4.23862e-05
0.0159195
0.187591
-3.89293e-05
0.0152909
0.17868
-2.06781e-05
0.0143967
0.166243
0.0133298
0.151274
-1.32324e-08
9.93527e-05
0.0173758
0.177152
-4.61594e-10
0.000154171
0.0185893
0.194129
0.000149786
0.019594
0.20804
9.17485e-05
0.0202866
0.217906
-4.50118e-09
0.020641
0.223021
-9.17584e-05
0.020641
0.223021
-0.000149798
0.0202866
0.217906
-0.000154184
0.019594
0.20804
-9.93674e-05
0.0185893
0.194129
0.0173758
0.177152
-1.6547e-08
0.00019259
0.0195815
0.186859
-8.75255e-10
0.000286133
0.0207517
0.204347
0.000270538
0.0217058
0.218468
0.000162447
0.0223494
0.22838
-5.75884e-09
0.0226751
0.233486
-0.00016246
0.0226751
0.233486
-0.000270552
0.0223494
0.22838
-0.000286149
0.0217058
0.218468
-0.000192608
0.0207517
0.204347
0.0195815
0.186859
-1.93894e-08
0.0002904
0.0199149
0.184239
-1.61551e-09
0.000420318
0.0209146
0.201399
0.000391681
0.0217125
0.215067
0.000232881
0.022238
0.224568
-7.64198e-09
0.0225006
0.229434
-0.000232897
0.0225006
0.229434
-0.000391698
0.022238
0.224568
-0.000420337
0.0217125
0.215067
-0.00029042
0.0209146
0.201399
0.0199149
0.184239
-2.12314e-08
0.000384653
0.0186709
0.172951
-2.25835e-09
0.000548147
0.0194386
0.189443
0.000506558
0.0200338
0.202423
0.000299542
0.0204158
0.21137
-9.98201e-09
0.0206042
0.21593
-0.000299563
0.0206042
0.21593
-0.00050658
0.0204158
0.21137
-0.00054817
0.0200338
0.202423
-0.000384675
0.0194386
0.189443
0.0186709
0.172951
-2.2001e-08
0.000471067
0.0162861
0.156013
-2.53157e-09
0.000668267
0.0168081
0.171795
0.000615387
0.0172008
0.184091
0.000362838
0.0174476
0.192508
-1.21437e-08
0.0175684
0.196779
-0.000362862
0.0175684
0.196779
-0.000615412
0.0174476
0.192508
-0.000668292
0.0172008
0.184091
-0.00047109
0.0168081
0.171795
0.0162861
0.156013
-2.14882e-08
0.000557265
0.0132156
0.13566
-3.43212e-09
0.000791912
0.0135108
0.150821
0.000727041
0.0137358
0.162536
0.000427276
0.0138783
0.170505
-1.38775e-08
0.0139484
0.174536
-0.000427303
0.0139484
0.174536
-0.000727067
0.0138783
0.170505
-0.000791936
0.0137359
0.162536
-0.000557286
0.0135108
0.150821
0.0132156
0.13566
-1.98835e-08
0.000681407
0.113399
-6.33104e-09
0.00984582
0.000951043
0.128071
0.00998516
0.000862002
0.139322
0.0101002
0.000502337
0.146932
0.0101792
-1.53814e-08
0.150768
0.0102183
-0.000502367
0.150768
0.0102183
-0.000862029
0.146932
0.0101792
-0.000951065
0.139321
0.0101002
-0.000681423
0.128071
0.00998517
0.113399
-1.75506e-08
0.00984583
1.02252e-05
0.000604565
0.0397495
-1.00033e-10
1.00032e-05
0.000680785
0.0438987
8.1264e-06
0.000748874
0.047406
4.40466e-06
0.000802005
0.049954
-8.40853e-10
0.000830658
0.0512944
-4.40672e-06
0.000830658
0.0512944
-8.12828e-06
0.000802005
0.049954
-1.00053e-05
0.000748874
0.047406
-1.02273e-05
0.000680786
0.0438987
0.000604566
0.0397495
-2.77196e-09
3.39735e-05
0.0022888
0.10438
-1.93881e-10
4.26488e-05
0.00252988
0.115051
3.69329e-05
0.00273999
0.124013
2.11515e-05
0.00289633
0.13049
-2.1393e-09
0.00297947
0.133886
-2.11565e-05
0.00297947
0.133886
-3.69376e-05
0.00289633
0.13049
-4.2654e-05
0.00273999
0.124013
-3.39787e-05
0.00252988
0.115051
0.0022888
0.10438
-6.48235e-09
6.42866e-05
0.0043653
0.149133
-3.34611e-10
8.78295e-05
0.00476812
0.163981
7.86482e-05
0.00511323
0.176316
4.58403e-05
0.00536285
0.185157
-3.21662e-09
0.00549412
0.18977
-4.58472e-05
0.00549412
0.18977
-7.86551e-05
0.00536285
0.185157
-8.78373e-05
0.00511323
0.176316
-6.42951e-05
0.00476812
0.163981
0.00436531
0.149133
-9.95631e-09
0.000101807
0.00621442
0.175201
-5.56796e-10
0.000144151
0.00671672
0.192139
0.000131516
0.00714069
0.206025
7.72767e-05
0.00744055
0.215883
-4.21104e-09
0.00759655
0.220995
-7.72852e-05
0.00759655
0.220995
-0.000131525
0.00744055
0.215883
-0.000144161
0.00714069
0.206025
-0.000101819
0.00671672
0.192139
0.00621443
0.175201
-1.2661e-08
0.000144917
0.00746861
0.18546
-9.55979e-10
0.000207548
0.00799168
0.203009
0.000190857
0.00842651
0.217199
0.000112493
0.00872765
0.227172
-5.13942e-09
0.00888258
0.232313
-0.000112503
0.00888258
0.232313
-0.000190868
0.00872765
0.227172
-0.00020756
0.00842651
0.217199
-0.000144931
0.00799169
0.203009
0.00746861
0.18546
-1.51699e-08
0.000191256
0.00798755
0.183529
-1.37204e-09
0.000273966
0.00846462
0.200843
0.000252489
0.00885427
0.214661
0.000148924
0.00911845
0.224281
-6.21434e-09
0.00925279
0.229213
-0.000148936
0.00925279
0.229213
-0.000252502
0.00911845
0.224281
-0.00027398
0.00885427
0.214661
-0.000191271
0.00846462
0.200843
0.00798756
0.183529
-1.71361e-08
0.000237924
0.00779945
0.172901
-1.79976e-09
0.000339831
0.00818729
0.189619
0.000313245
0.00849747
0.202807
0.000184735
0.00870341
0.211914
-7.37978e-09
0.00880694
0.216561
-0.00018475
0.00880694
0.216561
-0.00031326
0.00870342
0.211914
-0.000339846
0.00849747
0.202807
-0.00023794
0.0081873
0.189619
0.00779946
0.172901
-1.82032e-08
0.000282648
0.00703675
0.156493
-2.35512e-09
0.000403346
0.00731577
0.172546
0.000371757
0.0075347
0.185086
0.000219144
0.00767775
0.193686
-8.44297e-09
0.00774903
0.198056
-0.000219161
0.00774903
0.198056
-0.000371772
0.00767776
0.193686
-0.000403361
0.00753471
0.185086
-0.000282662
0.00731578
0.172546
0.00703675
0.156493
-1.75256e-08
0.000326653
0.00588099
0.136489
-2.91222e-09
0.000466084
0.006052
0.151946
0.000428735
0.0061869
0.163921
0.000252275
0.00627501
0.172085
-9.23662e-09
0.00631884
0.176218
-0.000252293
0.00631884
0.176218
-0.000428751
0.00627502
0.172085
-0.000466099
0.0061869
0.163921
-0.000326666
0.00605201
0.151946
0.005881
0.136489
-1.47745e-08
0.000379622
0.114384
-3.59682e-09
0.00451611
0.000532737
0.129363
0.0046067
0.00048571
0.140878
0.00467716
0.000284258
0.148683
0.00472579
-9.04843e-09
0.152621
0.00475015
-0.000284276
0.152621
0.00475015
-0.000485726
0.148682
0.0047258
-0.000532751
0.140878
0.00467717
-0.000379634
0.129363
0.00460671
0.114384
-1.11226e-08
0.00451611
-6.13384e-06
0.000375365
0.0393803
-6.97429e-11
-8.95014e-06
0.000410141
0.0434914
-7.69342e-06
0.0004382
0.0469666
-4.36629e-06
0.000458579
0.0494921
-9.40138e-10
0.000469091
0.050821
4.36465e-06
0.000469092
0.050821
7.6916e-06
0.000458579
0.0494921
8.94834e-06
0.0004382
0.0469666
6.13211e-06
0.00041014
0.0434914
0.000375365
0.0393803
-1.98084e-09
-7.2453e-06
0.0011319
0.103631
-1.28645e-10
-1.05448e-05
0.0012365
0.114228
-9.07693e-06
0.0013232
0.123127
-5.03569e-06
0.00138574
0.129558
-2.17549e-09
0.00141833
0.132931
5.03177e-06
0.00141833
0.132931
9.07248e-06
0.00138574
0.129558
1.05406e-05
0.0013232
0.123127
7.24092e-06
0.0012365
0.114228
0.0011319
0.103631
-4.748e-09
-8.96685e-07
0.00202182
0.148244
-1.93436e-10
-6.28632e-07
0.00220107
0.163016
1.17186e-07
0.00235089
0.175287
5.14894e-07
0.00245752
0.184085
-2.7856e-09
0.00251312
0.188676
-5.20443e-07
0.00251312
0.188676
-1.23267e-07
0.00245752
0.184085
6.22119e-07
0.00235089
0.175287
8.90049e-07
0.00220107
0.163016
0.00202182
0.148244
-7.35159e-09
1.11031e-05
0.00284145
0.17437
-3.12146e-10
1.73871e-05
0.00307634
0.191257
1.72272e-05
0.00327193
0.205104
1.07243e-05
0.00340948
0.214937
-3.26522e-09
0.0034808
0.220038
-1.07313e-05
0.0034808
0.220038
-1.72349e-05
0.00340948
0.214937
-1.7395e-05
0.00327193
0.205104
-1.11118e-05
0.00307634
0.191257
0.00284145
0.17437
-9.39804e-09
2.76179e-05
0.00344007
0.184834
-4.74978e-10
4.15961e-05
0.00369969
0.202372
3.98318e-05
0.00391391
0.216559
2.41365e-05
0.00406244
0.226534
-3.83311e-09
0.00413889
0.231679
-2.41448e-05
0.00413889
0.231679
-3.98409e-05
0.00406244
0.226534
-4.16058e-05
0.00391391
0.216559
-2.76282e-05
0.00369969
0.202372
0.00344007
0.184834
-1.12442e-08
4.73698e-05
0.00373791
0.183184
-6.3433e-10
6.98287e-05
0.00399096
0.20053
6.59628e-05
0.00419688
0.214382
3.95664e-05
0.00433744
0.224032
-4.59103e-09
0.0044092
0.228982
-3.95762e-05
0.0044092
0.228982
-6.59733e-05
0.00433745
0.224032
-6.98399e-05
0.00419688
0.214382
-4.73813e-05
0.00399096
0.20053
0.00373791
0.183184
-1.26026e-08
6.90546e-05
0.00372019
0.172849
-9.07039e-10
0.000100482
0.00394176
0.189636
9.42159e-05
0.00411889
0.202891
5.62088e-05
0.00423796
0.212052
-5.38329e-09
0.00429826
0.216728
-5.62199e-05
0.00429826
0.216728
-9.4228e-05
0.00423796
0.212052
-0.000100495
0.00411889
0.202891
-6.90677e-05
0.00394176
0.189636
0.00372019
0.172849
-1.34491e-08
9.1817e-05
0.00342136
0.1567
-1.72845e-09
0.000133008
0.00359532
0.172851
0.000124194
0.00373234
0.185481
7.38265e-05
0.00382342
0.194151
-5.969e-09
0.00386928
0.198559
-7.38384e-05
0.00386928
0.198559
-0.000124207
0.00382342
0.194151
-0.000133022
0.00373235
0.185481
-9.18303e-05
0.00359532
0.172851
0.00342136
0.1567
-1.35068e-08
0.000117134
0.00290629
0.136887
-3.02308e-09
0.000169153
0.00302657
0.152462
0.000157026
0.0031218
0.164544
9.28995e-05
0.00318507
0.172787
-6.54143e-09
0.00321687
0.176964
-9.29124e-05
0.00321687
0.176964
-0.000157039
0.00318507
0.172787
-0.000169166
0.0031218
0.164544
-0.000117146
0.00302657
0.152462
0.0029063
0.136887
-1.24372e-08
0.000151281
0.114888
-3.29501e-09
0.00225148
0.000213605
0.130002
0.00232579
0.000195674
0.141633
0.00238518
0.000114814
0.149522
0.00242594
-7.67695e-09
0.153507
0.00244648
-0.000114829
0.153507
0.00244649
-0.000195687
0.149522
0.00242594
-0.000213616
0.141633
0.00238518
-0.000151289
0.130002
0.00232579
0.114888
-9.69058e-09
0.00225148
1.45624e-06
8.36703e-05
0.0392951
-4.96488e-11
1.33839e-06
9.44921e-05
0.043397
1.066e-06
0.000104331
0.0468625
5.62171e-07
0.000112168
0.0493804
-7.38471e-10
0.000116421
0.0507051
-5.63788e-07
0.000116421
0.0507051
-1.06746e-06
0.000112168
0.0493804
-1.33966e-06
0.000104331
0.0468625
-1.45727e-06
9.44923e-05
0.043397
8.36709e-05
0.0392951
-1.38192e-09
4.64116e-06
0.000342138
0.103368
-1.33434e-10
5.56608e-06
0.000380066
0.113942
4.71902e-06
0.00041352
0.122819
2.66364e-06
0.000438786
0.129234
-1.76379e-09
0.000452312
0.132598
-2.66735e-06
0.000452312
0.132598
-4.72242e-06
0.000438786
0.129234
-5.56925e-06
0.000413519
0.122819
-4.64374e-06
0.000380066
0.113942
0.00034214
0.103368
-3.19018e-09
9.14659e-06
0.000689583
0.147888
-2.33286e-10
1.22246e-05
0.000758727
0.162635
1.08455e-05
0.000818788
0.174884
6.28896e-06
0.000862975
0.183665
-2.43201e-09
0.000886423
0.188248
-6.29389e-06
0.000886423
0.188248
-1.08503e-05
0.000862975
0.183665
-1.22293e-05
0.000818787
0.174884
-9.15096e-06
0.000758727
0.162635
0.000689586
0.147888
-5.05782e-09
1.5437e-05
0.00103239
0.174012
-2.7575e-10
2.16666e-05
0.00112645
0.190883
1.97267e-05
0.00120719
0.204718
1.15855e-05
0.00126552
0.214543
-2.93938e-09
0.00129622
0.21964
-1.15913e-05
0.00129622
0.21964
-1.97327e-05
0.00126552
0.214543
-2.16727e-05
0.00120719
0.204718
-1.54428e-05
0.00112645
0.190883
0.00103239
0.174012
-6.4866e-09
2.35064e-05
0.00130105
0.184542
-4.23246e-10
3.36275e-05
0.00140794
0.20208
3.09811e-05
0.00149857
0.21627
1.82949e-05
0.00156301
0.22625
-3.42311e-09
0.00159665
0.231397
-1.83017e-05
0.00159665
0.231397
-3.0988e-05
0.00156301
0.22625
-3.36347e-05
0.00149857
0.21627
-2.35135e-05
0.00140794
0.20208
0.00130106
0.184542
-7.79836e-09
3.30964e-05
0.00145456
0.182997
-8.55332e-10
4.75971e-05
0.00156093
0.200362
4.40518e-05
0.00164984
0.214234
2.60646e-05
0.00171207
0.223901
-4.0177e-09
0.00174429
0.228861
-2.60726e-05
0.00174429
0.228861
-4.406e-05
0.00171207
0.223901
-4.76054e-05
0.00164984
0.214234
-3.31048e-05
0.00156093
0.200362
0.00145456
0.182997
-8.75622e-09
4.37311e-05
0.00147935
0.172781
-1.26258e-09
6.29338e-05
0.00157387
0.189604
5.8337e-05
0.00165156
0.202894
3.45328e-05
0.00170512
0.212082
-4.70249e-09
0.0017326
0.216774
-3.45422e-05
0.0017326
0.216774
-5.83465e-05
0.00170512
0.212082
-6.29434e-05
0.00165156
0.202894
-4.37408e-05
0.00157387
0.189604
0.00147936
0.172781
-9.25002e-09
5.4928e-05
0.0013846
0.15674
-8.71545e-10
7.91048e-05
0.00145968
0.172941
7.33449e-05
0.0015204
0.185618
4.33964e-05
0.00156171
0.194324
-5.34646e-09
0.00158274
0.198752
-4.34072e-05
0.00158274
0.198752
-7.33557e-05
0.00156171
0.194324
-7.91158e-05
0.00152041
0.185618
-5.49386e-05
0.00145968
0.172941
0.0013846
0.15674
-9.14896e-09
6.66649e-05
0.00119553
0.137009
9.51266e-11
9.5871e-05
0.00124814
0.152645
8.86713e-05
0.00129028
0.164781
5.23565e-05
0.00131871
0.173066
-5.76145e-09
0.00133307
0.177266
-5.23681e-05
0.00133307
0.177266
-8.8683e-05
0.00131871
0.173066
-9.58831e-05
0.00129028
0.164781
-6.66767e-05
0.00124814
0.152645
0.00119553
0.137009
-8.30977e-09
7.92638e-05
0.115058
-2.03762e-10
0.0009462
0.000112534
0.130238
0.000978459
0.000103434
0.141929
0.0010037
6.08425e-05
0.149863
0.00102108
-5.46149e-09
0.153871
0.00102987
-6.08538e-05
0.153871
0.00102987
-0.000103446
0.149863
0.00102108
-0.000112547
0.141928
0.0010037
-7.92757e-05
0.130238
0.00097846
0.115058
-7.9641e-09
0.000946197
-1.00608e-06
5.85616e-05
0.0392376
-2.12531e-11
-1.48112e-06
6.38363e-05
0.0433336
-1.27177e-06
6.79738e-05
0.0467943
-7.22201e-07
7.09753e-05
0.0493089
-6.67144e-10
7.25212e-05
0.0506319
7.20962e-07
7.25214e-05
0.0506319
1.27058e-06
7.09754e-05
0.0493089
1.48004e-06
6.79737e-05
0.0467943
1.00527e-06
6.38359e-05
0.0433336
5.85616e-05
0.0392376
-8.99254e-10
-1.22573e-06
0.000185032
0.103242
-8.87825e-11
-1.80517e-06
0.000202148
0.113804
-1.56282e-06
0.000216178
0.12267
-8.71581e-07
0.000226323
0.129078
-1.46011e-09
0.000231628
0.132438
8.68771e-07
0.000231628
0.132438
1.56006e-06
0.000226323
0.129078
1.80274e-06
0.000216177
0.12267
1.22369e-06
0.000202147
0.113804
0.000185032
0.103242
-2.12852e-09
-1.89591e-07
0.000342085
0.147731
-1.09981e-10
-1.99294e-07
0.000373344
0.162463
-6.75576e-08
0.000399345
0.1747
2.9789e-08
0.000417973
0.183474
-1.83636e-09
0.000427728
0.188052
-3.34784e-08
0.000427728
0.188052
6.3827e-08
0.000417973
0.183474
1.95957e-07
0.000399344
0.1747
1.86348e-07
0.000373343
0.162463
0.000342084
0.147731
-3.43597e-09
1.87533e-06
0.000496636
0.173856
-1.68178e-10
2.91811e-06
0.000540108
0.190715
2.89436e-06
0.000576293
0.204541
1.80355e-06
0.000601974
0.21436
-2.11421e-09
0.000615369
0.219454
-1.80791e-06
0.000615369
0.219454
-2.89891e-06
0.000601974
0.21436
-2.92275e-06
0.000576292
0.204541
-1.88001e-06
0.000540107
0.190715
0.000496636
0.173856
-4.53825e-09
4.86239e-06
0.000620492
0.184413
-2.05023e-10
7.3441e-06
0.000671412
0.201946
7.05806e-06
0.00071356
0.216133
4.28673e-06
0.000743133
0.226111
-2.40368e-09
0.000758468
0.231258
-4.29177e-06
0.000758469
0.231258
-7.06353e-06
0.000743134
0.226111
-7.34997e-06
0.00071356
0.216133
-4.86842e-06
0.000671412
0.201946
0.000620491
0.184413
-5.68424e-09
8.63318e-06
0.000694905
0.182914
-9.8438e-11
1.28209e-05
0.000747439
0.200282
1.218e-05
0.000790475
0.214158
7.33102e-06
0.000820293
0.223829
-2.7418e-09
0.000835649
0.228791
-7.33679e-06
0.00083565
0.228791
-1.21864e-05
0.000820294
0.223829
-1.28279e-05
0.000790475
0.214158
-8.6402e-06
0.000747438
0.200282
0.000694904
0.182914
-6.70216e-09
1.30132e-05
0.000711604
0.172751
-6.63109e-12
1.9128e-05
0.000760253
0.189585
1.80594e-05
0.00079958
0.202886
1.08173e-05
0.000826488
0.212083
-2.98966e-09
0.000840251
0.216781
-1.08236e-05
0.000840251
0.216781
-1.80662e-05
0.00082649
0.212083
-1.91353e-05
0.00079958
0.202886
-1.30206e-05
0.000760252
0.189585
0.000711603
0.172751
-7.55175e-09
1.78866e-05
0.000671898
0.156762
-4.63169e-10
2.61886e-05
0.000712378
0.172981
2.46228e-05
0.00074476
0.185674
1.46943e-05
0.000766702
0.194394
-2.99992e-09
0.000777856
0.198829
-1.47003e-05
0.000777857
0.198829
-2.46288e-05
0.000766704
0.194394
-2.61947e-05
0.000744761
0.185674
-1.78929e-05
0.000712377
0.172981
0.000671898
0.156762
-7.85395e-09
2.35608e-05
0.000584454
0.137073
-1.65223e-09
3.42986e-05
0.000614426
0.152732
3.20182e-05
0.000638449
0.16489
1.90069e-05
0.000654659
0.173191
-2.96689e-09
0.000662865
0.1774
-1.90125e-05
0.000662866
0.1774
-3.20229e-05
0.000654661
0.173191
-3.43024e-05
0.00063845
0.16489
-2.35646e-05
0.000614426
0.152732
0.000584454
0.137073
-7.24403e-09
3.1036e-05
0.115149
-1.80548e-09
0.000462468
4.40815e-05
0.130357
0.00048239
4.06151e-05
0.142072
0.000498241
2.39226e-05
0.150025
0.000509178
-3.58836e-09
0.154043
0.000514722
-2.39289e-05
0.154043
0.000514722
-4.06194e-05
0.150025
0.000509179
-4.4084e-05
0.142072
0.000498241
-3.10383e-05
0.130357
0.00048239
0.115149
-5.62949e-09
0.00046247
8.60364e-08
1.59979e-05
0.0392215
3.79231e-12
1.97438e-08
1.79274e-05
0.0433158
-7.96073e-10
1.96682e-05
0.0467747
-8.30439e-09
2.10353e-05
0.0492878
-5.1215e-10
2.17731e-05
0.0506101
7.27026e-09
2.1773e-05
0.0506101
-1.79325e-10
2.10352e-05
0.0492878
-2.06074e-08
1.96682e-05
0.0467747
-8.65677e-08
1.79273e-05
0.0433158
1.59982e-05
0.0392215
-6.26656e-10
4.61106e-07
6.25155e-05
0.103195
-3.87076e-11
4.9004e-07
6.93809e-05
0.113753
3.9672e-07
7.54093e-05
0.122614
2.18501e-07
7.99497e-05
0.129019
-1.1612e-09
8.23755e-05
0.132378
-2.20788e-07
8.23755e-05
0.132378
-3.98868e-07
7.99496e-05
0.129019
-4.91837e-07
7.54092e-05
0.122614
-4.62503e-07
6.93808e-05
0.113753
6.25164e-05
0.103195
-1.5123e-09
1.16719e-06
0.000125946
0.147666
-8.54015e-11
1.523e-06
0.000138785
0.162394
1.34291e-06
0.000149923
0.174626
7.78409e-07
0.000158136
0.183396
-1.4981e-09
0.000162497
0.187973
-7.81384e-07
0.000162497
0.187973
-1.3458e-06
0.000158136
0.183396
-1.52562e-06
0.000149923
0.174626
-1.16947e-06
0.000138785
0.162394
0.000125948
0.147666
-2.45797e-09
2.27608e-06
0.000190604
0.173789
-6.76039e-11
3.17415e-06
0.000208653
0.190644
2.89086e-06
0.000224166
0.204467
1.7009e-06
0.00023544
0.214284
-1.71524e-09
0.000241389
0.219377
-1.70436e-06
0.000241389
0.219377
-2.89435e-06
0.00023544
0.214284
-3.1775e-06
0.000224166
0.204467
-2.27912e-06
0.000208653
0.190644
0.000190607
0.173789
-3.23427e-09
3.79684e-06
0.000243858
0.184356
-3.54671e-11
5.41803e-06
0.000265141
0.201888
4.9976e-06
0.00028325
0.216074
2.95636e-06
0.000296237
0.226052
-1.92082e-09
0.000303046
0.231199
-2.96026e-06
0.000303046
0.231199
-5.00162e-06
0.000296237
0.226052
-5.42205e-06
0.00028325
0.216074
-3.80063e-06
0.000265142
0.201888
0.000243862
0.184356
-3.9722e-09
5.69704e-06
0.000277242
0.182875
-1.34096e-10
8.18756e-06
0.000299277
0.200245
7.58831e-06
0.000317791
0.214124
4.49689e-06
0.000330895
0.223797
-2.18583e-09
0.000337718
0.228761
-4.50132e-06
0.000337718
0.228761
-7.59287e-06
0.000330896
0.223797
-8.19222e-06
0.000317792
0.214124
-5.70156e-06
0.000299278
0.200245
0.000277246
0.182875
-4.46341e-09
7.90151e-06
0.000286823
0.172734
-2.90089e-10
1.13828e-05
0.000307242
0.189574
1.05686e-05
0.000324139
0.20288
6.26521e-06
0.000335938
0.212083
-2.49937e-09
0.000342035
0.216782
-6.27028e-06
0.000342035
0.216782
-1.05738e-05
0.000335939
0.212083
-1.13883e-05
0.00032414
0.20288
-7.90695e-06
0.000307243
0.189574
0.000286827
0.172734
-4.6573e-09
1.03235e-05
0.000272913
0.156766
-2.08155e-10
1.49017e-05
0.000289899
0.172993
1.38404e-05
0.000303736
0.185696
8.19978e-06
0.000313268
0.194422
-2.81241e-09
0.000318154
0.198862