/*--------------------------------*- C++ -*----------------------------------*\
| =========                 |                                                 |
| \\      /  F ield         | OpenFOAM: The Open Source CFD Toolbox           |
|  \\    /   O peration     | Version:  2106                                  |
|   \\  /    A nd           | Website:  www.openfoam.com                      |
|    \\/     M anipulation  |                                                 |
\*---------------------------------------------------------------------------*/
FoamFile
{
    version     2.0;
    format      ascii;
    arch        "LSB;label=32;scalar=64";
    class       surfaceScalarField;
    location    "0.41";
    object      phi;
}
// * * * * * * * * * * * * * * * * * * * * * * * * * * * * * * * * * * * * * //

dimensions      [0 3 -1 0 0 0 0];

oriented        oriented;

internalField   nonuniform List<scalar> 
29100
(
0.00118084
0.15039
0.0809282
-3.0026e-10
0.00145311
0.155266
0.0889352
0.00124696
0.158684
0.095624
0.000710145
0.160961
0.100412
-3.41987e-09
0.162104
0.102905
-0.000710152
0.162104
0.102905
-0.00124697
0.160961
0.100412
-0.00145311
0.158684
0.095624
-0.00118084
0.155266
0.0889352
0.15039
0.0809282
-5.27465e-09
0.00236399
0.208204
0.155488
-6.46486e-10
0.00328368
0.212784
0.169015
0.00292872
0.215851
0.180076
0.00169421
0.217764
0.187899
-9.14781e-09
0.218702
0.191941
-0.00169423
0.218702
0.191941
-0.00292874
0.217764
0.187899
-0.0032837
0.215851
0.180076
-0.002364
0.212784
0.169015
0.208204
0.155488
-1.35742e-08
0.00301518
0.219292
0.184732
-9.5215e-10
0.00426465
0.222207
0.199761
0.00382805
0.224104
0.211858
0.00221711
0.225137
0.220337
-1.4513e-08
0.225616
0.224695
-0.00221714
0.225616
0.224695
-0.00382808
0.225137
0.220337
-0.00426467
0.224104
0.211858
-0.00301521
0.222207
0.199761
0.219292
0.184732
-2.07812e-08
0.00344287
0.206011
0.191841
-1.20849e-09
0.0048031
0.207251
0.207008
0.00430226
0.208002
0.219062
0.00248728
0.208231
0.227452
-1.97797e-08
0.208296
0.231745
-0.00248732
0.208296
0.231745
-0.0043023
0.208231
0.227452
-0.00480313
0.208002
0.219062
-0.0034429
0.207251
0.207008
0.206011
0.191841
-2.71175e-08
0.00367063
0.181039
0.186473
-1.47997e-09
0.00505141
0.18099
0.201273
0.00451229
0.18087
0.212918
0.00260525
0.180526
0.220973
-2.52359e-08
0.180303
0.225083
-0.0026053
0.180303
0.225083
-0.00451234
0.180526
0.220973
-0.00505146
0.18087
0.212918
-0.00367067
0.18099
0.201273
0.181039
0.186473
-3.28971e-08
0.00375356
0.151664
0.17396
-1.79555e-09
0.00511435
0.150761
0.18824
0.00455887
0.150074
0.199385
0.0026306
0.149394
0.207054
-3.1074e-08
0.149009
0.210956
-0.00263066
0.149009
0.210956
-0.00455893
0.149394
0.207054
-0.0051144
0.150074
0.199385
-0.0037536
0.150761
0.18824
0.151664
0.17396
-3.82667e-08
0.0037592
0.121974
0.157438
-2.17789e-09
0.00508581
0.12059
0.171196
0.00452638
0.119589
0.181863
0.00261163
0.118766
0.189168
-3.7407e-08
0.118322
0.192876
-0.0026117
0.118322
0.192876
-0.00452645
0.118766
0.189168
-0.00508587
0.119589
0.181863
-0.00375925
0.12059
0.171196
0.121974
0.157438
-4.33714e-08
0.00372218
0.0941879
0.138739
-2.62467e-09
0.00502812
0.0925837
0.152031
0.00447475
0.0914685
0.162279
0.00258297
0.0906491
0.169266
-4.41917e-08
0.0902252
0.172804
-0.00258305
0.0902252
0.172804
-0.00447483
0.0906491
0.169266
-0.00502819
0.0914685
0.162279
-0.00372224
0.0925837
0.152031
0.0941879
0.138739
-4.81446e-08
0.00368752
0.0694205
0.118923
-3.23704e-09
0.00500589
0.0677631
0.131813
0.00445637
0.0667067
0.141702
0.00257154
0.0660073
0.148415
-5.10496e-08
0.065661
0.151807
-0.00257164
0.065661
0.151807
-0.00445646
0.0660073
0.148415
-0.00500597
0.0667067
0.141702
-0.00368759
0.0677631
0.131813
0.0694205
0.118923
-5.25427e-08
0.00390485
0.0985949
-4.02877e-09
0.0479322
0.0051918
0.111144
0.0466228
0.00456544
0.120721
0.0457893
0.00261454
0.127194
0.0452842
-5.7296e-08
0.130457
0.0450364
-0.00261466
0.130457
0.0450364
-0.00456554
0.127194
0.0452842
-0.00519188
0.120721
0.0457893
-0.00390492
0.111144
0.0466228
0.0985949
-5.65745e-08
0.0479322
-0.000240378
0.0364923
0.0446763
-4.15855e-10
-0.000242436
0.0396629
0.0492743
-0.000170462
0.0423424
0.0532097
-8.49098e-05
0.0442584
0.0560677
-5.41662e-09
0.0452495
0.0575705
8.48991e-05
0.0452495
0.0575705
0.000170451
0.0442584
0.0560677
0.000242426
0.0423424
0.0532097
0.000240368
0.0396629
0.0492743
0.0364923
0.0446763
-8.4676e-09
6.40428e-05
0.0805705
0.111346
-9.73349e-10
0.000251908
0.0863477
0.122143
0.000301195
0.0911522
0.131217
0.000201795
0.0945183
0.137738
-1.58643e-08
0.0962473
0.141145
-0.000201826
0.0962473
0.141145
-0.000301225
0.0945183
0.137738
-0.000251937
0.0911522
0.131217
-6.40685e-05
0.0863477
0.122143
0.0805705
0.111346
-2.34935e-08
0.00061225
0.111954
0.152736
-1.52601e-09
0.00102918
0.118639
0.167053
0.00100696
0.124125
0.178908
0.000615395
0.127893
0.187354
-2.62207e-08
0.129814
0.191744
-0.000615447
0.129814
0.191744
-0.00100701
0.127893
0.187354
-0.00102922
0.124125
0.178908
-0.000612291
0.118639
0.167053
0.111954
0.152736
-3.71992e-08
0.00122903
0.128329
0.174238
-2.06748e-09
0.00186957
0.134683
0.190322
0.00175899
0.139832
0.203466
0.00105047
0.143294
0.212759
-3.65914e-08
0.145042
0.217568
-0.00105054
0.145042
0.217568
-0.00175906
0.143294
0.212759
-0.00186964
0.139832
0.203466
-0.00122909
0.134683
0.190322
0.128329
0.174238
-4.94022e-08
0.00183127
0.131449
0.181522
-2.64964e-09
0.00266681
0.136787
0.198333
0.00246423
0.141044
0.211908
0.00145551
0.143837
0.221439
-4.71848e-08
0.14523
0.226351
-0.0014556
0.14523
0.226351
-0.00246432
0.143837
0.221439
-0.00266689
0.141044
0.211908
-0.00183134
0.136787
0.198333
0.131449
0.181522
-6.03122e-08
0.00237504
0.124362
0.178672
-3.30693e-09
0.00337442
0.128417
0.195611
0.00308566
0.131574
0.209143
0.00181121
0.133585
0.218581
-5.81259e-08
0.134572
0.223425
-0.00181132
0.134572
0.223425
-0.00308577
0.133585
0.218581
-0.00337451
0.131574
0.209143
-0.00237512
0.128417
0.195611
0.124362
0.178672
-6.9983e-08
0.00283737
0.110304
0.168658
-4.08776e-09
0.00397624
0.113077
0.185398
0.00361501
0.115154
0.198644
0.0021147
0.116428
0.207826
-6.93727e-08
0.117041
0.212522
-0.00211484
0.117041
0.212522
-0.00361514
0.116428
0.207826
-0.00397635
0.115154
0.198644
-0.00283746
0.113077
0.185398
0.110304
0.168658
-7.85045e-08
0.00321262
0.0921951
0.153636
-4.89769e-09
0.00448221
0.0938185
0.17002
0.0040663
0.0949735
0.182875
0.00237501
0.0956525
0.191733
-8.05611e-08
0.0959727
0.196248
-0.00237516
0.0959727
0.196248
-0.00406644
0.0956525
0.191733
-0.00448234
0.0949735
0.182875
-0.00321273
0.0938185
0.17002
0.0921951
0.153636
-8.56268e-08
0.00353666
0.0724288
0.135153
-6.05736e-09
0.00494187
0.0731002
0.151126
0.00447771
0.0735787
0.163561
0.00261119
0.0738551
0.172079
-9.06239e-08
0.0739851
0.176406
-0.00261136
0.0739851
0.176406
-0.00447787
0.0738551
0.172079
-0.00494201
0.0735787
0.163561
-0.00353677
0.0731002
0.151126
0.0724288
0.135153
-9.09959e-08
0.00395781
0.114311
-7.77053e-09
0.0527545
0.00548068
0.129886
0.0528349
0.00492677
0.141905
0.052949
0.00285698
0.150088
0.0530313
-9.83892e-08
0.15423
0.053069
-0.00285717
0.15423
0.053069
-0.00492694
0.150088
0.0530313
-0.00548083
0.141904
0.052949
-0.00395793
0.129886
0.0528349
0.114311
-9.44004e-08
0.0527545
3.929e-05
0.00994962
0.0346874
-4.53287e-10
3.52287e-05
0.0109787
0.0382997
2.96057e-05
0.0118521
0.0413631
1.63822e-05
0.0125006
0.0435803
-5.5968e-09
0.0128423
0.0447446
-1.63933e-05
0.0128423
0.0447446
-2.96165e-05
0.0125006
0.0435803
-3.52391e-05
0.0118521
0.0413631
-3.92998e-05
0.0109787
0.0382997
0.00994962
0.0346874
-9.12288e-09
0.000280367
0.03015
0.090865
-1.05904e-09
0.000380519
0.0328437
0.100178
0.000339898
0.035098
0.108012
0.000198204
0.0367236
0.113657
-1.69757e-08
0.0375729
0.116612
-0.000198238
0.0375729
0.116612
-0.000339931
0.0367237
0.113657
-0.00038055
0.035098
0.108012
-0.000280395
0.0328437
0.100178
0.03015
0.090865
-2.5804e-08
0.000597934
0.0509132
0.131374
-1.71818e-09
0.000848029
0.0548849
0.144761
0.000767989
0.0581644
0.155921
0.000450034
0.0604766
0.163919
-2.85888e-08
0.0616743
0.168092
-0.00045009
0.0616743
0.168092
-0.000768043
0.0604766
0.163919
-0.00084808
0.0581644
0.155921
-0.000597979
0.0548849
0.144761
0.0509132
0.131374
-4.12129e-08
0.000962242
0.0665708
0.157618
-2.42306e-09
0.00138034
0.0711041
0.173685
0.00126033
0.0748015
0.186949
0.000740007
0.077357
0.196399
-4.03631e-08
0.0786686
0.201313
-0.000740086
0.0786686
0.201313
-0.0012604
0.0773571
0.196399
-0.00138041
0.0748015
0.186949
-0.000962304
0.0711041
0.173685
0.0665709
0.157618
-5.49663e-08
0.0013482
0.0751528
0.171591
-3.23688e-09
0.00193029
0.0795916
0.189264
0.00176688
0.0831633
0.20371
0.0010377
0.0855842
0.213941
-5.23204e-08
0.086814
0.219243
-0.00103781
0.086814
0.219243
-0.00176698
0.0855842
0.213941
-0.00193038
0.0831633
0.20371
-0.00134828
0.0795916
0.189264
0.0751528
0.171591
-6.70956e-08
0.00173551
0.0766965
0.175393
-4.21265e-09
0.00246796
0.0805789
0.193891
0.00225802
0.0836486
0.208867
0.00132542
0.0856866
0.219411
-6.44303e-08
0.0867104
0.224855
-0.00132554
0.0867104
0.224855
-0.00225814
0.0856866
0.219411
-0.00246806
0.0836486
0.208867
-0.0017356
0.0805789
0.193891
0.0766965
0.175393
-7.7531e-08
0.00210107
0.0722878
0.170966
-5.40634e-09
0.00296942
0.0753576
0.189751
0.00271412
0.0777278
0.20482
0.00159222
0.0792678
0.215366
-7.64957e-08
0.0800324
0.220792
-0.00159237
0.0800324
0.220792
-0.00271425
0.0792678
0.215366
-0.00296955
0.0777278
0.20482
-0.00210117
0.0753576
0.189751
0.0722878
0.170966
-8.62581e-08
0.002429
0.0634838
0.160011
-6.6778e-09
0.00342499
0.0656502
0.178731
0.00312894
0.0672799
0.193619
0.00183473
0.0683191
0.203976
-8.80119e-08
0.0688302
0.209285
-0.00183491
0.0688302
0.209285
-0.0031291
0.0683191
0.203976
-0.00342512
0.0672799
0.193619
-0.00242911
0.0656502
0.178731
0.0634838
0.160011
-9.29281e-08
0.00273189
0.051943
0.143962
-8.40505e-09
0.00385089
0.053245
0.162412
0.00351265
0.0542187
0.176961
0.00205688
0.0548372
0.187017
-9.77142e-08
0.055141
0.192152
-0.00205707
0.055141
0.192152
-0.00351282
0.0548372
0.187017
-0.00385104
0.0542187
0.176961
-0.00273201
0.053245
0.162412
0.051943
0.143962
-9.70083e-08
0.00306935
0.124005
-1.06621e-08
0.0391796
0.00429222
0.142108
0.0398008
0.00389269
0.156224
0.0402987
0.00227008
0.165915
0.0406328
-1.04213e-07
0.170843
0.0407976
-0.00227028
0.170843
0.0407976
-0.00389287
0.165915
0.0406328
-0.00429237
0.156224
0.0402987
-0.00306947
0.142108
0.0398008
0.124005
-9.83605e-08
0.0391796
-3.16115e-05
0.0040389
0.0306801
-4.34807e-10
-4.51606e-05
0.00444746
0.0338658
-3.64782e-05
0.0047943
0.0365601
-2.01326e-05
0.00505216
0.0385118
-4.9562e-09
0.00518724
0.0395372
2.01228e-05
0.00518724
0.0395372
3.64686e-05
0.00505216
0.0385118
4.51511e-05
0.0047943
0.0365601
3.16024e-05
0.00444746
0.0338658
0.00403891
0.0306801
-8.39136e-09
9.22994e-06
0.0125255
0.0823691
-1.04031e-09
1.60207e-05
0.0137239
0.0908944
2.03621e-05
0.0147397
0.0980622
1.46495e-05
0.01548
0.103235
-1.52897e-08
0.0158682
0.105946
-1.46797e-05
0.0158682
0.105946
-2.03914e-05
0.01548
0.103235
-1.60477e-05
0.0147397
0.0980622
-9.25417e-06
0.0137239
0.0908944
0.0125255
0.0823691
-2.38118e-08
0.000120888
0.022272
0.121507
-1.76871e-09
0.000183202
0.0242582
0.134165
0.000175881
0.0259303
0.144738
0.000107143
0.0271303
0.152337
-2.6006e-08
0.0277568
0.156311
-0.000107195
0.0277568
0.156311
-0.00017593
0.0271304
0.152337
-0.000183248
0.0259303
0.144738
-0.00012093
0.0242582
0.134165
0.022272
0.121507
-3.85326e-08
0.000288855
0.0308449
0.148756
-2.5604e-09
0.000430452
0.0333687
0.164433
0.000405643
0.0354726
0.177431
0.000243162
0.0369601
0.186732
-3.69664e-08
0.0377317
0.191582
-0.000243235
0.0377317
0.191582
-0.000405713
0.0369601
0.186732
-0.000430516
0.0354726
0.177431
-0.000288912
0.0333687
0.164433
0.0308449
0.148756
-5.15398e-08
0.00049745
0.0367456
0.165193
-3.485e-09
0.000730768
0.0394686
0.18293
0.000683299
0.0417091
0.197521
0.000406941
0.0432688
0.207909
-4.80796e-08
0.0440716
0.21331
-0.000407035
0.0440716
0.21331
-0.000683388
0.0432688
0.207909
-0.00073085
0.0417091
0.197521
-0.000497521
0.0394686
0.18293
0.0367456
0.165193
-6.28368e-08
0.000730715
0.039341
0.172067
-4.5924e-09
0.00106025
0.0419467
0.191083
0.000986028
0.0440538
0.206597
0.000584967
0.0454964
0.217584
-5.92043e-08
0.0462326
0.223279
-0.000585083
0.0462326
0.223279
-0.000986137
0.0454965
0.217584
-0.00106035
0.0440538
0.206597
-0.000730798
0.0419467
0.191083
0.039341
0.172067
-7.23285e-08
0.000971538
0.0386619
0.170673
-5.93784e-09
0.00139745
0.040911
0.190361
0.00129482
0.0426896
0.206287
0.000766238
0.0438865
0.217505
-7.00633e-08
0.0444917
0.223299
-0.000766375
0.0444917
0.223299
-0.00129494
0.0438865
0.217505
-0.00139756
0.0426896
0.206287
-0.000971631
0.040911
0.190361
0.0386619
0.170673
-7.99441e-08
0.00120713
0.0351914
0.162274
-7.36992e-09
0.00172932
0.0369381
0.182182
0.00159826
0.0382867
0.198153
0.00094397
0.03918
0.209337
-8.01201e-08
0.0396279
0.215093
-0.000944125
0.0396279
0.215093
-0.0015984
0.03918
0.209337
-0.00172944
0.0382867
0.198153
-0.00120723
0.0369381
0.182182
0.0351914
0.162274
-8.53327e-08
0.00144174
0.0296696
0.148042
-9.21486e-09
0.00205861
0.0308663
0.167867
0.00189535
0.0317758
0.183635
0.0011163
0.0323728
0.194603
-8.81668e-08
0.0326707
0.200225
-0.00111647
0.0326707
0.200225
-0.00189551
0.0323728
0.194603
-0.00205874
0.0317758
0.183635
-0.00144185
0.0308663
0.167867
0.0296696
0.148042
-8.79657e-08
0.00169136
0.129043
-1.15267e-08
0.0229404
0.002397
0.148641
0.0236277
0.00219405
0.164034
0.0241685
0.00128664
0.174663
0.0245324
-9.29392e-08
0.180087
0.0247141
-0.00128682
0.180087
0.0247141
-0.00219421
0.174663
0.0245324
-0.00239714
0.164034
0.0241685
-0.00169147
0.148641
0.0236277
0.129043
-8.77857e-08
0.0229404
2.14441e-06
0.00130073
0.0293772
-4.0818e-10
-2.39812e-07
0.00144455
0.0324236
9.333e-08
0.00156981
0.03499
1.03201e-07
0.00166545
0.0368463
-4.06218e-09
0.00171648
0.0378208
-1.1126e-07
0.00171648
0.0378208
-1.01291e-07
0.00166546
0.0368463
2.32045e-07
0.00156981
0.03499
-2.15166e-06
0.00144455
0.0324236
0.00130073
0.0293772
-7.14659e-09
3.01795e-05
0.00466998
0.0789697
-1.03936e-09
3.8794e-05
0.00515437
0.087176
3.55997e-05
0.00557089
0.0940643
2.10725e-05
0.00588036
0.0990343
-1.26184e-08
0.00604435
0.101639
-2.10975e-05
0.00604435
0.101639
-3.56241e-05
0.00588036
0.0990343
-3.88173e-05
0.0055709
0.0940643
-3.02012e-05
0.00515438
0.087176
0.00466999
0.0789697
-2.05154e-08
8.38936e-05
0.00900714
0.117086
-1.74569e-09
0.000118595
0.0098852
0.129399
0.000109282
0.0106333
0.139685
6.48005e-05
0.0111791
0.147083
-2.15556e-08
0.0114667
0.150953
-6.48431e-05
0.0114667
0.150953
-0.000109323
0.0111791
0.147083
-0.000118634
0.0106333
0.139685
-8.39289e-05
0.00988521
0.129399
0.00900715
0.117086
-3.29007e-08
0.000163033
0.0132256
0.144375
-2.51325e-09
0.000236352
0.0144273
0.159817
0.000219286
0.0154411
0.172641
0.000130146
0.0161695
0.18183
-3.07134e-08
0.016551
0.186628
-0.000130206
0.016551
0.186628
-0.000219344
0.0161695
0.18183
-0.000236406
0.0154411
0.172641
-0.000163081
0.0144273
0.159817
0.0132256
0.144375
-4.393e-08
0.00026465
0.0165123
0.161642
-3.41e-09
0.000385299
0.0178954
0.179342
0.000358313
0.0190484
0.193941
0.000212641
0.0198649
0.204359
-3.99713e-08
0.0202892
0.209784
-0.000212719
0.0202892
0.209784
-0.000358387
0.0198649
0.204359
-0.000385367
0.0190485
0.193941
-0.00026471
0.0178954
0.179342
0.0165123
0.161642
-5.35048e-08
0.000383443
0.0183849
0.169811
-4.47344e-09
0.000556578
0.0197868
0.189019
0.000517488
0.0209379
0.204747
0.00030689
0.0217406
0.215919
-4.91564e-08
0.0221545
0.22172
-0.000306986
0.0221545
0.22172
-0.000517578
0.0217406
0.215919
-0.000556659
0.0209379
0.204747
-0.000383512
0.0197868
0.189019
0.018385
0.16981
-6.14685e-08
0.000512086
0.0186791
0.169867
-5.74614e-09
0.000740183
0.0199545
0.189965
0.000687462
0.020982
0.206296
0.000407312
0.0216875
0.217838
-5.79944e-08
0.0220481
0.223813
-0.000407426
0.0220481
0.223813
-0.000687567
0.0216875
0.217838
-0.000740275
0.020982
0.206296
-0.000512164
0.0199545
0.189965
0.0186791
0.169867
-6.77336e-08
0.000644012
0.0174935
0.162816
-7.10187e-09
0.000928272
0.0185368
0.183315
0.000860759
0.0193601
0.199843
0.000509303
0.0199168
0.211459
-6.60123e-08
0.0201989
0.217451
-0.000509431
0.0201989
0.217451
-0.000860878
0.0199168
0.211459
-0.000928374
0.0193601
0.199843
-0.000644096
0.0185368
0.183315
0.0174935
0.162816
-7.2013e-08
0.000779266
0.0151157
0.14964
-8.77833e-09
0.00111821
0.0158742
0.170191
0.00103289
0.0164614
0.186619
0.000609567
0.0168534
0.19809
-7.22251e-08
0.0170508
0.203983
-0.000609707
0.0170508
0.203983
-0.00103302
0.0168535
0.19809
-0.00111832
0.0164614
0.186619
-0.000779353
0.0158743
0.170191
0.0151157
0.14964
-7.38515e-08
0.000913705
0.131292
-1.07595e-08
0.0119534
0.00130328
0.151706
0.0124191
0.00119915
0.167815
0.0127848
0.000705536
0.178977
0.0130327
-7.56594e-08
0.184686
0.0131575
-0.000705682
0.184686
0.0131575
-0.00119928
0.178977
0.0130327
-0.00130339
0.167815
0.0127848
-0.000913792
0.151706
0.0124191
0.131292
-7.32096e-08
0.0119534
-5.51686e-06
0.000558718
0.028824
-3.54397e-10
-8.23833e-06
0.000614578
0.0318118
-6.57768e-06
0.000661911
0.0343264
-3.63538e-06
0.00069786
0.0361455
-3.18973e-09
0.000716773
0.0371004
3.62913e-06
0.000716773
0.0371004
6.57137e-06
0.000697861
0.0361455
8.23217e-06
0.000661911
0.0343264
5.51124e-06
0.000614578
0.0318118
0.00055872
0.028824
-5.90117e-09
-1.33212e-06
0.00194498
0.0775848
-9.39554e-10
-2.65696e-06
0.00214244
0.0856495
-1.37017e-06
0.00231082
0.0924141
-3.1612e-07
0.00243606
0.097295
-9.92694e-09
0.0025024
0.0998533
2.95983e-07
0.0025024
0.0998533
1.35094e-06
0.00243607
0.097295
2.63758e-06
0.00231082
0.0924141
1.31168e-06
0.00214244
0.0856494
0.00194498
0.0775847
-1.70163e-08
1.6209e-05
0.00378063
0.115234
-1.54751e-09
2.38664e-05
0.00415703
0.127377
2.34003e-05
0.00447802
0.137518
1.44735e-05
0.00471356
0.144814
-1.68676e-08
0.00483804
0.148632
-1.45067e-05
0.00483804
0.148632
-2.34327e-05
0.00471357
0.144814
-2.38968e-05
0.00447802
0.137518
-1.62364e-05
0.00415703
0.127377
0.00378064
0.115234
-2.63944e-08
4.76319e-05
0.00566168
0.142446
-2.22006e-09
7.0771e-05
0.00620263
0.157749
6.73158e-05
0.00666142
0.170461
4.06259e-05
0.00699392
0.179577
-2.39986e-08
0.00716881
0.184337
-4.06731e-05
0.00716881
0.184337
-6.73612e-05
0.00699392
0.179577
-7.08131e-05
0.00666142
0.170461
-4.76696e-05
0.00620264
0.157749
0.00566169
0.142446
-3.50773e-08
9.17556e-05
0.00723171
0.15998
-2.99842e-09
0.000135744
0.00788372
0.177617
0.000128098
0.00843141
0.192178
7.6763e-05
0.00882329
0.202581
-3.1184e-08
0.00902817
0.208002
-7.68243e-05
0.00902817
0.208002
-0.000128156
0.0088233
0.202581
-0.000135797
0.00843142
0.192178
-9.18024e-05
0.00788374
0.177617
0.00723172
0.15998
-4.27423e-08
0.000146495
0.00823775
0.168658
-3.90533e-09
0.000215273
0.00892784
0.187906
0.000202269
0.00949964
0.203691
0.00012078
0.00990322
0.214921
-3.82588e-08
0.0101127
0.220757
-0.000120855
0.0101127
0.220757
-0.00020234
0.00990323
0.214921
-0.000215336
0.00949965
0.203691
-0.000146549
0.00892785
0.187906
0.00823776
0.168658
-4.91372e-08
0.000208732
0.00855162
0.169345
-4.96953e-09
0.00030494
0.0092058
0.189591
0.000285637
0.00973845
0.206076
0.000170152
0.010109
0.217748
-4.4998e-08
0.0102997
0.223796
-0.00017024
0.0102997
0.223796
-0.000285719
0.010109
0.217748
-0.000305013
0.00973847
0.206076
-0.000208793
0.00920582
0.189591
0.00855163
0.169344
-5.41723e-08
0.000275566
0.00816676
0.162925
-6.09084e-09
0.000400997
0.00872416
0.183672
0.00037447
0.00916929
0.200438
0.000222536
0.00947432
0.212245
-5.10401e-08
0.00963002
0.218344
-0.000222635
0.00963003
0.218343
-0.000374561
0.00947433
0.212245
-0.000401077
0.0091693
0.200438
-0.000275632
0.00872418
0.183671
0.00816677
0.162925
-5.76325e-08
0.000347209
0.00717759
0.150282
-7.41287e-09
0.000501945
0.00760153
0.171159
0.0004662
0.00793319
0.187891
0.000276068
0.0081572
0.199597
-5.56788e-08
0.00827064
0.205619
-0.000276176
0.00827065
0.205619
-0.000466299
0.00815721
0.199597
-0.00050203
0.0079332
0.187891
-0.000347277
0.00760154
0.171159
0.0071776
0.150282
-5.91824e-08
0.000419676
0.132293
-8.91119e-09
0.00575698
0.000602973
0.153094
0.00603075
0.000557782
0.169547
0.00624682
0.000329248
0.180968
0.0063942
-5.82385e-08
0.186817
0.00646873
-0.000329361
0.186817
0.00646873
-0.000557884
0.180968
0.00639421
-0.00060306
0.169547
0.00624682
-0.000419745
0.153094
0.00603076
0.132293
-5.88184e-08
0.00575698
-7.88503e-07
0.000175164
0.0286496
-2.60704e-10
-1.5667e-06
0.000194092
0.0316185
-1.16104e-06
0.000210624
0.0341154
-6.28164e-07
0.000223627
0.0359213
-2.37646e-09
0.00023057
0.0368692
6.23436e-07
0.00023057
0.0368692
1.1564e-06
0.000223627
0.0359213
1.56208e-06
0.000210624
0.0341154
7.84047e-07
0.000194093
0.0316185
0.000175164
0.0286496
-4.21418e-09
1.63386e-06
0.000688121
0.0770702
-6.94204e-10
1.62096e-06
0.000762129
0.0850814
1.74722e-06
0.000826373
0.0917982
1.14546e-06
0.000875033
0.0966442
-7.37374e-09
0.000901021
0.099184
-1.16006e-06
0.000901022
0.099184
-1.76148e-06
0.000875034
0.0966442
-1.63442e-06
0.000826375
0.0917982
-1.64625e-06
0.000762131
0.0850814
0.000688123
0.0770701
-1.21248e-08
9.10159e-06
0.00141828
0.114495
-1.20164e-09
1.26468e-05
0.0015676
0.126568
1.19584e-05
0.0016965
0.136649
7.22898e-06
0.00179239
0.143902
-1.26062e-08
0.00184341
0.147697
-7.25391e-06
0.00184341
0.147697
-1.19825e-05
0.00179239
0.143902
-1.26697e-05
0.00169651
0.136649
-9.12245e-06
0.0015676
0.126568
0.00141828
0.114495
-1.96576e-08
2.22461e-05
0.00220773
0.141634
-1.75281e-09
3.227e-05
0.00243185
0.156874
3.03312e-05
0.00262399
0.169535
1.81742e-05
0.00276495
0.178616
-1.79395e-08
0.00283959
0.183359
-1.82096e-05
0.00283959
0.183359
-3.03652e-05
0.00276495
0.178616
-3.23017e-05
0.00262399
0.169535
-2.22746e-05
0.00243186
0.156874
0.00220773
0.141634
-2.64722e-08
4.11356e-05
0.00290556
0.159241
-2.37304e-09
6.02645e-05
0.00318591
0.176843
5.66017e-05
0.00342393
0.191382
3.38241e-05
0.00359629
0.201773
-2.32758e-08
0.003687
0.207188
-3.38699e-05
0.003687
0.207188
-5.66452e-05
0.00359629
0.201773
-6.03046e-05
0.00342393
0.191382
-4.1171e-05
0.00318592
0.176843
0.00290556
0.159241
-3.24506e-08
6.52404e-05
0.00339284
0.168106
-3.07452e-09
9.5618e-05
0.00369948
0.187362
8.97272e-05
0.00395645
0.203165
5.3537e-05
0.00414005
0.214413
-2.84925e-08
0.00423599
0.220261
-5.35929e-05
0.00423599
0.220261
-8.978e-05
0.00414005
0.214413
-9.56657e-05
0.00395646
0.203165
-6.52818e-05
0.00369949
0.187362
0.00339285
0.168105
-3.7481e-08
9.34431e-05
0.00359756
0.169046
-3.87243e-09
0.000136653
0.00389707
0.18935
0.000128069
0.00414396
0.205897
7.6308e-05
0.00431783
0.217622
-3.34262e-08
0.00440796
0.223701
-7.63734e-05
0.00440796
0.223701
-0.00012813
0.00431784
0.217622
-0.000136708
0.00414397
0.205897
-9.34895e-05
0.00389708
0.18935
0.00359757
0.169046
-4.15081e-08
0.000124537
0.0034994
0.162899
-4.70476e-09
0.000181661
0.00376203
0.18375
0.000169856
0.00397445
0.20062
0.000101011
0.00412172
0.21251
-3.78281e-08
0.00419737
0.218655
-0.000101085
0.00419738
0.218655
-0.000169924
0.00412173
0.21251
-0.000181721
0.00397445
0.200619
-0.000124588
0.00376204
0.183749
0.00349941
0.162898
-4.43898e-08
0.000158296
0.00312581
0.150498
-5.6507e-09
0.00022936
0.00333169
0.171518
0.000213358
0.00349428
0.188387
0.000126472
0.00360511
0.2002
-4.12461e-08
0.00366152
0.206281
-0.000126552
0.00366152
0.206281
-0.000213432
0.00360512
0.2002
-0.000229424
0.00349428
0.188387
-0.000158348
0.00333169
0.171518
0.00312581
0.150498
-4.59043e-08
0.000190768
0.132682
-6.66539e-09
0.00254622
0.000275413
0.153658
0.00268283
0.000255665
0.17027
0.00279091
0.000151244
0.181813
0.00286499
-4.32693e-08
0.187727
0.0029026
-0.000151328
0.187727
0.0029026
-0.000255741
0.181813
0.00286499
-0.000275479
0.17027
0.00279091
-0.000190821
0.153658
0.00268283
0.132681
-4.60688e-08
0.00254622
-1.33226e-06
6.96647e-05
0.0285813
-1.85748e-10
-1.92253e-06
7.64494e-05
0.0315426
-1.5574e-06
8.22736e-05
0.0340328
-8.63927e-07
8.68137e-05
0.0358338
-1.72559e-09
8.92122e-05
0.0367792
8.60505e-07
8.92122e-05
0.0367792
1.55406e-06
8.6814e-05
0.0358338
1.91926e-06
8.2274e-05
0.0340328
1.32908e-06
7.645e-05
0.0315426
6.9665e-05
0.0285813
-2.92594e-09
-1.69461e-06
0.000262946
0.0768786
-5.16832e-10
-2.5555e-06
0.000290412
0.0848683
-2.09465e-06
0.000314216
0.0915658
-1.1346e-06
0.000332286
0.0963978
-5.34629e-09
0.000341925
0.0989301
1.12402e-06
0.000341925
0.0989301
2.08439e-06
0.000332287
0.0963978
2.54561e-06
0.000314218
0.0915658
1.68515e-06
0.000290414
0.0848683
0.000262947
0.0768786
-8.53054e-09
4.70694e-07
0.000542659
0.114215
-8.71884e-10
4.97494e-07
0.000600372
0.126258
6.94795e-07
0.000650197
0.136312
5.36008e-07
0.00068745
0.143547
-9.1316e-09
0.000707325
0.147332
-5.54038e-07
0.000707326
0.147332
-7.1216e-07
0.000687452
0.143547
-5.13195e-07
0.000650199
0.136312
-4.83797e-07
0.000600374
0.126258
0.000542663
0.114215
-1.3686e-08
5.00747e-06
0.000855906
0.141316
-1.28905e-09
7.36209e-06
0.000945526
0.156527
7.14094e-06
0.00102259
0.169163
4.37737e-06
0.00107949
0.178227
-1.29819e-08
0.00110973
0.182961
-4.40297e-06
0.00110973
0.182961
-7.16547e-06
0.00107949
0.178227
-7.38503e-06
0.00102259
0.169163
-5.02823e-06
0.00094553
0.156527
0.000855911
0.141316
-1.89868e-08
1.22572e-05
0.00114475
0.15894
-1.73769e-09
1.81287e-05
0.00126041
0.176523
1.72484e-05
0.00135904
0.191046
1.0402e-05
0.00143099
0.201428
-1.68163e-08
0.001469
0.206839
-1.04351e-05
0.001469
0.206839
-1.72799e-05
0.00143099
0.201428
-1.81577e-05
0.00135905
0.191046
-1.2283e-05
0.00126042
0.176523
0.00114476
0.15894
-2.35739e-08
2.19664e-05
0.00135878
0.16787
-2.22997e-09
3.24439e-05
0.00148898
0.187123
3.06905e-05
0.00159868
0.202927
1.84112e-05
0.00167766
0.214179
-2.0545e-08
0.00171911
0.22003
-1.84516e-05
0.00171911
0.22003
-3.07287e-05
0.00167766
0.214179
-3.24786e-05
0.00159869
0.202927
-2.19967e-05
0.00148899
0.187123
0.00135878
0.167869
-2.74414e-08
3.37348e-05
0.0014633
0.168908
-2.77707e-09
4.96887e-05
0.00159395
0.189229
4.68562e-05
0.00170231
0.205797
2.80284e-05
0.00177922
0.217539
-2.40588e-08
0.00181926
0.223629
-2.80755e-05
0.00181927
0.223629
-4.69004e-05
0.00177922
0.217539
-4.97284e-05
0.00170231
0.205796
-3.37689e-05
0.00159396
0.189229
0.00146331
0.168908
-3.06132e-08
4.71267e-05
0.00144365
0.162871
-3.33991e-09
6.92026e-05
0.00156123
0.18376
6.50347e-05
0.00165697
0.200669
3.87935e-05
0.00172386
0.212592
-2.72004e-08
0.00175836
0.218755
-3.88466e-05
0.00175836
0.218755
-6.50842e-05
0.00172386
0.212592
-6.92465e-05
0.00165697
0.200669
-4.71637e-05
0.00156124
0.18376
0.00144365
0.162871
-3.30128e-08
6.21303e-05
0.00130549
0.150574
-3.9503e-09
9.04894e-05
0.00140017
0.171651
8.45043e-05
0.00147541
0.188574
5.02092e-05
0.00152704
0.200431
-2.97043e-08
0.00155341
0.206536
-5.02672e-05
0.00155341
0.206536
-8.45579e-05
0.00152704
0.200431
-9.05365e-05
0.00147541
0.188574
-6.21693e-05
0.00140017
0.171651
0.00130549
0.150574
-3.45059e-08
7.69104e-05
0.132836
-4.57734e-09
0.00107414
0.000111618
0.153885
0.00113876
0.000104021
0.170563
0.00119012
6.16773e-05
0.182157
0.00122546
-3.13352e-08
0.188099
0.00124345
-6.17383e-05
0.188099
0.00124345
-0.000104077
0.182157
0.00122546
-0.000111667
0.170563
0.00119012
-7.69504e-05
0.153884
0.00113877
0.132836
-3.51176e-08
0.00107414
-3.63973e-07
1.67529e-05
0.0285649
-1.23305e-10
-5.66359e-07
1.8577e-05
0.0315242
-4.60091e-07
2.02642e-05
0.0340124
-2.57462e-07
2.16632e-05
0.035812
-1.21777e-09
2.24193e-05
0.0367565
2.5505e-07
2.24193e-05
0.0367565
4.57756e-07
2.16634e-05
0.035812
5.64073e-07
2.02645e-05
0.0340124
3.61798e-07
1.85774e-05
0.0315242
1.67532e-05
0.0285649
-1.96305e-09
-5.14632e-07
7.73825e-05
0.0768185
-3.52891e-10
-8.77549e-07
8.62219e-05
0.0848011
-7.49287e-07
9.41396e-05
0.0914918
-4.18441e-07
0.000100323
0.0963188
-3.76833e-09
0.000103663
0.0988485
4.10988e-07
0.000103663
0.0988485
7.42119e-07
0.000100323
0.0963188
8.70604e-07
9.41407e-05
0.0914918
5.08101e-07
8.62232e-05
0.084801
7.73832e-05
0.0768184
-5.80637e-09
2.0057e-07
0.000173932
0.114118
-6.00097e-10
8.90874e-08
0.00019394
0.12615
1.12054e-07
0.000211571
0.136195
9.31929e-08
0.000225003
0.143422
-6.43008e-09
0.000232238
0.147204
-1.05856e-07
0.000232239
0.147204
-1.24271e-07
0.000225004
0.143422
-9.97133e-08
0.000211573
0.136195
-2.09798e-07
0.000193942
0.12615
0.000173935
0.114118
-9.41832e-09
1.8287e-06
0.000288628
0.1412
-8.84767e-10
2.53239e-06
0.000321204
0.156399
2.39858e-06
0.000349648
0.169025
1.45258e-06
0.000370973
0.178082
-9.13628e-09
0.000382395
0.182813
-1.47059e-06
0.000382396
0.182813
-2.4158e-06
0.000370975
0.178082
-2.54853e-06
0.00034965
0.169025
-1.84316e-06
0.000321207
0.156399
0.000288632
0.1412
-1.31518e-08
4.55109e-06
0.000400075
0.158824
-1.1863e-09
6.58925e-06
0.000443643
0.176398
6.20968e-06
0.000481281
0.190915
3.72541e-06
0.000509104
0.201292
-1.18186e-08
0.000523912
0.206702
-3.74867e-06
0.000523912
0.206702
-6.23184e-06
0.000509106
0.201292
-6.60971e-06
0.000481284
0.190915
-4.56923e-06
0.000443647
0.176398
0.000400079
0.158824
-1.6469e-08
8.32121e-06
0.000488069
0.167773
-1.50832e-09
1.21896e-05
0.000538557
0.187024
1.14844e-05
0.000581602
0.202827
6.8735e-06
0.000612975
0.214079
-1.44178e-08
0.00062955
0.219931
-6.90182e-06
0.000629551
0.219931
-1.15113e-05
0.000612978
0.214079
-1.22141e-05
0.000581606
0.202827
-8.34263e-06
0.000538562
0.187024
0.000488074
0.167773
-1.93346e-08
1.30155e-05
0.000537331
0.168846
-1.85549e-09
1.91272e-05
0.000589265
0.189172
1.80123e-05
0.000632828
0.205746
1.07649e-05
0.000664101
0.217495
-1.68652e-08
0.000680481
0.223588
-1.0798e-05
0.000680482
0.223588
-1.80435e-05
0.000664103
0.217495
-1.91553e-05
0.000632832
0.205746
-1.30398e-05
0.000589269
0.189172
0.000537336
0.168846
-2.17572e-08
1.84726e-05
0.00053989
0.16285
-2.20677e-09
2.71308e-05
0.000587705
0.183753
2.54938e-05
0.000627038
0.200677
1.52045e-05
0.000654786
0.212612
-1.90673e-08
0.000669172
0.218781
-1.52418e-05
0.000669173
0.218781
-2.55287e-05
0.000654788
0.212611
-2.7162e-05
0.000627041
0.200676
-1.84992e-05
0.000587709
0.183753
0.000539895
0.16285
-2.36923e-08
2.46268e-05
0.000495909
0.150593
-2.5718e-09