/*--------------------------------*- C++ -*----------------------------------*\
| =========                 |                                                 |
| \\      /  F ield         | OpenFOAM: The Open Source CFD Toolbox           |
|  \\    /   O peration     | Version:  2106                                  |
|   \\  /    A nd           | Website:  www.openfoam.com                      |
|    \\/     M anipulation  |                                                 |
\*---------------------------------------------------------------------------*/
FoamFile
{
    version     2.0;
    format      ascii;
    arch        "LSB;label=32;scalar=64";
    class       volVectorField;
    location    "0.41";
    object      U;
}
// * * * * * * * * * * * * * * * * * * * * * * * * * * * * * * * * * * * * * //

dimensions      [0 1 -1 0 0 0 0];

internalField   nonuniform List<vector> 
10000
(
(0.0626193 0.0737857 0.345645)
(0.0534066 0.0839115 0.360145)
(0.0398856 0.0930684 0.371526)
(0.0247433 0.099455 0.379385)
(0.00838539 0.102757 0.383379)
(-0.0083854 0.102757 0.383379)
(-0.0247433 0.099455 0.379385)
(-0.0398856 0.0930684 0.371526)
(-0.0534066 0.0839115 0.360145)
(-0.0626194 0.0737857 0.345645)
(0.172038 0.204107 0.728847)
(0.145213 0.231319 0.748511)
(0.108404 0.255253 0.763162)
(0.0670665 0.271819 0.773067)
(0.0227012 0.280363 0.778019)
(-0.0227013 0.280363 0.778019)
(-0.0670665 0.271819 0.773067)
(-0.108404 0.255253 0.763162)
(-0.145213 0.231319 0.748511)
(-0.172038 0.204107 0.728847)
(0.222329 0.264007 0.92493)
(0.185546 0.295607 0.940758)
(0.137619 0.3232 0.951823)
(0.0847146 0.342071 0.959125)
(0.0286036 0.351738 0.962706)
(-0.0286036 0.351738 0.962706)
(-0.0847146 0.342071 0.959125)
(-0.137619 0.3232 0.951823)
(-0.185547 0.295607 0.940758)
(-0.222329 0.264007 0.92493)
(0.236943 0.280919 1.02408)
(0.195783 0.310593 1.03457)
(0.144298 0.336556 1.04123)
(0.0884076 0.354107 1.04548)
(0.0297816 0.363038 1.04751)
(-0.0297817 0.363038 1.04751)
(-0.0884077 0.354107 1.04548)
(-0.144298 0.336556 1.04123)
(-0.195783 0.310593 1.03457)
(-0.236943 0.280919 1.02408)
(0.234553 0.277604 1.07239)
(0.192189 0.303304 1.07832)
(0.140884 0.325929 1.08142)
(0.0859605 0.341084 1.08329)
(0.0288999 0.348746 1.08412)
(-0.0289 0.348746 1.08412)
(-0.0859606 0.341084 1.08329)
(-0.140884 0.325929 1.08142)
(-0.192189 0.303304 1.07832)
(-0.234554 0.277603 1.07239)
(0.223098 0.263579 1.09338)
(0.181389 0.284612 1.09592)
(0.132316 0.303282 1.09654)
(0.0804252 0.315707 1.09676)
(0.0269897 0.321951 1.0968)
(-0.0269898 0.321951 1.0968)
(-0.0804253 0.315707 1.09676)
(-0.132316 0.303282 1.09654)
(-0.181389 0.284612 1.09592)
(-0.223098 0.263579 1.09338)
(0.206361 0.243197 1.09987)
(0.166479 0.259353 1.1001)
(0.120875 0.273844 1.09914)
(0.0732046 0.283464 1.09834)
(0.0245238 0.288276 1.09789)
(-0.024524 0.288276 1.09789)
(-0.0732048 0.283464 1.09834)
(-0.120875 0.273844 1.09914)
(-0.166479 0.259353 1.1001)
(-0.206361 0.243197 1.09987)
(0.186708 0.219224 1.09904)
(0.149434 0.230584 1.0978)
(0.108025 0.240919 1.09594)
(0.0652015 0.24781 1.09459)
(0.0218069 0.251254 1.09388)
(-0.0218071 0.251254 1.09388)
(-0.0652017 0.24781 1.09459)
(-0.108025 0.240919 1.09594)
(-0.149435 0.230584 1.0978)
(-0.186708 0.219224 1.09904)
(0.165694 0.19348 1.0949)
(0.131647 0.20027 1.09276)
(0.0947697 0.206611 1.09048)
(0.0570177 0.210967 1.08889)
(0.01904 0.213163 1.08808)
(-0.0190403 0.213163 1.08808)
(-0.057018 0.210967 1.08889)
(-0.09477 0.206611 1.09048)
(-0.131648 0.200269 1.09276)
(-0.165694 0.19348 1.0949)
(0.144497 0.167599 1.0897)
(0.114332 0.168408 1.08708)
(0.0817318 0.17143 1.08465)
(0.0489911 0.173639 1.08301)
(0.0163306 0.174775 1.08219)
(-0.0163309 0.174775 1.08219)
(-0.0489914 0.173639 1.08301)
(-0.0817321 0.17143 1.08465)
(-0.114332 0.168408 1.08708)
(-0.144497 0.167599 1.0897)
(0.0111907 0.0142982 0.267952)
(0.00939947 0.0175879 0.280281)
(0.00709721 0.0202291 0.290377)
(0.00449204 0.0220396 0.297405)
(0.00153689 0.0229827 0.301002)
(-0.00153691 0.0229827 0.301002)
(-0.00449206 0.0220396 0.297405)
(-0.00709723 0.0202291 0.290377)
(-0.00939949 0.0175878 0.280281)
(-0.0111907 0.0142982 0.267952)
(0.0541292 0.0655152 0.632841)
(0.0464643 0.0788106 0.654895)
(0.0355528 0.0901972 0.67258)
(0.0224726 0.0982617 0.684741)
(0.00768972 0.102494 0.690914)
(-0.00768978 0.102494 0.690914)
(-0.0224727 0.0982617 0.684742)
(-0.0355529 0.0901971 0.67258)
(-0.0464643 0.0788106 0.654895)
(-0.0541293 0.0655151 0.632841)
(0.0969698 0.115864 0.880895)
(0.0826927 0.136985 0.904799)
(0.0629314 0.155099 0.923546)
(0.0395367 0.167875 0.936279)
(0.0134879 0.174544 0.94269)
(-0.013488 0.174544 0.94269)
(-0.0395368 0.167875 0.936279)
(-0.0629315 0.155099 0.923546)
(-0.0826928 0.136985 0.904799)
(-0.0969699 0.115864 0.880895)
(0.132334 0.156959 1.04907)
(0.111872 0.182702 1.07107)
(0.0845764 0.204671 1.0879)
(0.0528278 0.220049 1.09918)
(0.0179699 0.22803 1.10482)
(-0.0179701 0.22803 1.10482)
(-0.0528279 0.220049 1.09918)
(-0.0845766 0.204671 1.0879)
(-0.111872 0.182702 1.07107)
(-0.132334 0.156959 1.04907)
(0.157357 0.185582 1.16194)
(0.131861 0.21289 1.18044)
(0.0990456 0.236032 1.19419)
(0.061539 0.252107 1.20329)
(0.0208779 0.260403 1.20779)
(-0.0208781 0.260403 1.20779)
(-0.0615392 0.252107 1.20329)
(-0.0990458 0.236032 1.19419)
(-0.131861 0.21289 1.18044)
(-0.157357 0.185582 1.16194)
(0.172172 0.202014 1.23632)
(0.143027 0.22843 1.25087)
(0.106766 0.250614 1.26134)
(0.0660099 0.265914 1.26815)
(0.0223398 0.273765 1.27149)
(-0.0223401 0.273765 1.27149)
(-0.0660102 0.265914 1.26815)
(-0.106766 0.250614 1.26134)
(-0.143027 0.22843 1.25087)
(-0.172172 0.202014 1.23632)
(0.177921 0.207693 1.2841)
(0.14651 0.23137 1.29489)
(0.108707 0.251013 1.30236)
(0.0668984 0.264473 1.30712)
(0.0225883 0.271346 1.30941)
(-0.0225886 0.271346 1.30941)
(-0.0668987 0.264473 1.30712)
(-0.108707 0.251013 1.30236)
(-0.14651 0.23137 1.29489)
(-0.177921 0.207692 1.2841)
(0.176013 0.20433 1.31374)
(0.143658 0.223959 1.32127)
(0.105972 0.23997 1.32622)
(0.064931 0.250887 1.32929)
(0.0218763 0.256442 1.33074)
(-0.0218767 0.256442 1.33074)
(-0.0649314 0.250887 1.32929)
(-0.105972 0.23997 1.32622)
(-0.143658 0.223958 1.32127)
(-0.176013 0.20433 1.31374)
(0.167955 0.193659 1.33117)
(0.13593 0.20838 1.33606)
(0.0996967 0.220042 1.33906)
(0.0608228 0.228012 1.34083)
(0.0204484 0.232065 1.34163)
(-0.0204488 0.232065 1.34163)
(-0.0608232 0.228012 1.34083)
(-0.0996971 0.220042 1.33906)
(-0.13593 0.20838 1.33606)
(-0.167956 0.193659 1.33117)
(0.155344 0.17845 1.34063)
(0.1249 0.185819 1.34354)
(0.0908609 0.192872 1.34509)
(0.0551551 0.197731 1.34591)
(0.0184979 0.2002 1.34625)
(-0.0184984 0.2002 1.34625)
(-0.0551556 0.19773 1.34591)
(-0.0908613 0.192872 1.34509)
(-0.124901 0.185819 1.34354)
(-0.155345 0.17845 1.34063)
(0.00109824 0.00122404 0.159769)
(0.00111285 0.00156419 0.168175)
(0.000868257 0.00196677 0.175191)
(0.000581209 0.00226534 0.180157)
(0.000202561 0.00243078 0.182727)
(-0.000202582 0.00243078 0.182727)
(-0.000581231 0.00226533 0.180157)
(-0.00086828 0.00196676 0.175191)
(-0.00111287 0.00156418 0.168175)
(-0.00109827 0.00122402 0.159769)
(0.0176874 0.0205225 0.446943)
(0.015909 0.0250324 0.467343)
(0.0124505 0.0292811 0.484091)
(0.00799533 0.0324188 0.495842)
(0.00275487 0.034104 0.501889)
(-0.00275494 0.034104 0.501889)
(-0.0079954 0.0324188 0.495842)
(-0.0124506 0.029281 0.484091)
(-0.0159091 0.0250323 0.467343)
(-0.0176874 0.0205225 0.446943)
(0.0401891 0.0467837 0.692492)
(0.035488 0.0561808 0.720235)
(0.0275623 0.0647566 0.74264)
(0.0175528 0.0710242 0.758228)
(0.00602585 0.0743608 0.766209)
(-0.00602596 0.0743608 0.766209)
(-0.0175529 0.0710242 0.758228)
(-0.0275624 0.0647566 0.74264)
(-0.0354881 0.0561807 0.720235)
(-0.0401892 0.0467836 0.692492)
(0.0643156 0.0749368 0.895893)
(0.0560321 0.0887044 0.927087)
(0.0431876 0.101023 0.95185)
(0.0273237 0.109928 0.968926)
(0.00935109 0.114634 0.977621)
(-0.00935125 0.114634 0.977621)
(-0.0273239 0.109928 0.968926)
(-0.0431877 0.101023 0.95185)
(-0.0560323 0.0887043 0.927087)
(-0.0643157 0.0749367 0.895893)
(0.0856841 0.0997287 1.06063)
(0.0737824 0.116395 1.09239)
(0.0564542 0.131083 1.11715)
(0.0355114 0.141594 1.13407)
(0.0121193 0.147111 1.14264)
(-0.0121195 0.147111 1.14264)
(-0.0355116 0.141594 1.13407)
(-0.0564544 0.131083 1.11715)
(-0.0737826 0.116395 1.09239)
(-0.0856843 0.0997286 1.06063)
(0.102143 0.118587 1.1917)
(0.0870124 0.136428 1.22207)
(0.0661093 0.151932 1.24531)
(0.0413628 0.162925 1.26105)
(0.0140794 0.168659 1.26897)
(-0.0140797 0.168659 1.26897)
(-0.0413631 0.162925 1.26105)
(-0.0661096 0.151932 1.24531)
(-0.0870127 0.136428 1.22207)
(-0.102143 0.118586 1.1917)
(0.112928 0.130643 1.29438)
(0.0952032 0.148027 1.32217)
(0.071836 0.162905 1.34305)
(0.044717 0.173365 1.35705)
(0.0151831 0.178791 1.36406)
(-0.0151835 0.178791 1.36406)
(-0.0447174 0.173365 1.35705)
(-0.0718363 0.162905 1.34305)
(-0.0952035 0.148027 1.32217)
(-0.112928 0.130643 1.29438)
(0.117991 0.135877 1.37365)
(0.098455 0.151401 1.39825)
(0.0737887 0.164447 1.41642)
(0.045706 0.17355 1.42849)
(0.015481 0.178249 1.4345)
(-0.0154814 0.178249 1.4345)
(-0.0457064 0.17355 1.42849)
(-0.0737891 0.164446 1.41642)
(-0.0984553 0.151401 1.39825)
(-0.117991 0.135877 1.37365)
(0.117787 0.134795 1.43382)
(0.0973083 0.147358 1.45514)
(0.072421 0.157608 1.47063)
(0.0446277 0.164731 1.4808)
(0.015077 0.168393 1.48582)
(-0.0150775 0.168393 1.48582)
(-0.0446281 0.164731 1.4808)
(-0.0724214 0.157608 1.47063)
(-0.0973086 0.147358 1.45514)
(-0.117787 0.134795 1.43382)
(0.11317 0.129175 1.47849)
(0.0925933 0.136605 1.49708)
(0.0682376 0.143356 1.51005)
(0.0417911 0.148028 1.51844)
(0.0140762 0.150417 1.52254)
(-0.0140767 0.150417 1.52254)
(-0.0417916 0.148028 1.51844)
(-0.068238 0.143356 1.51005)
(-0.0925936 0.136605 1.49708)
(-0.11317 0.129175 1.47849)
(0.000698717 0.000920005 0.140756)
(0.000544459 0.00115374 0.147705)
(0.000371828 0.00131876 0.15336)
(0.000229879 0.00141595 0.157331)
(7.68687e-05 0.00146438 0.159378)
(-7.68878e-05 0.00146438 0.159378)
(-0.000229899 0.00141594 0.157331)
(-0.000371848 0.00131875 0.15336)
(-0.000544481 0.00115373 0.147705)
(-0.000698737 0.000919988 0.140756)
(0.00679248 0.00813192 0.402665)
(0.00589128 0.0100229 0.421008)
(0.00452602 0.0116568 0.435848)
(0.00288553 0.0128276 0.446232)
(0.00099065 0.0134499 0.451574)
(-0.00099071 0.0134499 0.451574)
(-0.00288559 0.0128276 0.446232)
(-0.00452608 0.0116568 0.435848)
(-0.00589135 0.0100229 0.421008)
(-0.00679254 0.00813188 0.402665)
(0.016586 0.0196019 0.638629)
(0.0144539 0.0238581 0.665542)
(0.0111768 0.0275893 0.68714)
(0.00711615 0.0302939 0.702183)
(0.00244308 0.0317315 0.7099)
(-0.00244318 0.0317315 0.7099)
(-0.00711626 0.0302939 0.702183)
(-0.0111769 0.0275893 0.68714)
(-0.014454 0.023858 0.665542)
(-0.0165861 0.0196018 0.638629)
(0.0283473 0.0333089 0.846662)
(0.0246208 0.040045 0.87929)
(0.0190123 0.0459494 0.905211)
(0.0120658 0.0502247 0.923167)
(0.00413643 0.0524899 0.932347)
(-0.00413658 0.0524899 0.932347)
(-0.012066 0.0502247 0.923167)
(-0.0190125 0.0459494 0.905211)
(-0.024621 0.0400449 0.87929)
(-0.0283474 0.0333088 0.846662)
(0.040094 0.0469003 1.02673)
(0.034603 0.0556582 1.0625)
(0.0266096 0.0632899 1.09059)
(0.0168188 0.0687872 1.10993)
(0.00575457 0.071687 1.11978)
(-0.00575476 0.071687 1.11978)
(-0.016819 0.0687872 1.10993)
(-0.0266098 0.0632898 1.09059)
(-0.0346032 0.0556581 1.0625)
(-0.0400942 0.0469002 1.02673)
(0.0504077 0.0587042 1.18009)
(0.0431663 0.0687045 1.21685)
(0.0330147 0.0773353 1.24536)
(0.0207737 0.0835096 1.26487)
(0.00709207 0.0867503 1.27476)
(-0.00709231 0.0867503 1.27476)
(-0.0207739 0.0835096 1.26487)
(-0.033015 0.0773353 1.24536)
(-0.0431665 0.0687045 1.21685)
(-0.0504079 0.0587041 1.18009)
(0.0583741 0.0676638 1.30873)
(0.0495536 0.0779949 1.3448)
(0.0376683 0.0867953 1.37243)
(0.0235898 0.0930428 1.39121)
(0.00803462 0.0963047 1.4007)
(-0.00803492 0.0963047 1.4007)
(-0.0235901 0.0930428 1.39121)
(-0.0376686 0.0867952 1.37243)
(-0.0495539 0.0779949 1.3448)
(-0.0583743 0.0676638 1.30873)
(0.0634678 0.0731746 1.41495)
(0.0533763 0.0829219 1.44915)
(0.0403104 0.0910862 1.47502)
(0.025121 0.0968348 1.49248)
(0.00853519 0.0998208 1.50127)
(-0.00853553 0.0998208 1.50127)
(-0.0251213 0.0968348 1.49248)
(-0.0403107 0.0910862 1.47502)
(-0.0533766 0.0829219 1.44915)
(-0.0634681 0.0731745 1.41495)
(0.0655428 0.0750333 1.50106)
(0.0545946 0.0833845 1.53274)
(0.0409381 0.0901833 1.5564)
(0.0253752 0.0949379 1.57222)
(0.00859822 0.0973941 1.58012)
(-0.0085986 0.0973941 1.58012)
(-0.0253756 0.0949379 1.57222)
(-0.0409385 0.0901833 1.55639)
(-0.0545949 0.0833845 1.53274)
(-0.0655431 0.0750333 1.50106)
(0.0648125 0.0740025 1.56911)
(0.0534324 0.0794868 1.59858)
(0.0396643 0.084262 1.61978)
(0.0244246 0.0875727 1.63375)
(0.00824912 0.0892706 1.64068)
(-0.00824951 0.0892706 1.64068)
(-0.024425 0.0875727 1.63375)
(-0.0396647 0.084262 1.61978)
(-0.0534328 0.0794868 1.59858)
(-0.0648128 0.0740025 1.5691)
(0.000119822 0.000129706 0.130307)
(0.000111973 0.000170854 0.136816)
(8.2702e-05 0.000213887 0.142104)
(5.65469e-05 0.000244089 0.145822)
(1.95161e-05 0.000261193 0.147741)
(-1.95312e-05 0.000261192 0.147741)
(-5.65627e-05 0.000244085 0.145822)
(-8.27185e-05 0.000213881 0.142104)
(-0.00011199 0.000170844 0.136816)
(-0.000119838 0.000129693 0.130307)
(0.00234304 0.0027089 0.376787)
(0.00209682 0.00335926 0.394372)
(0.00164208 0.00396008 0.408607)
(0.00106095 0.00440693 0.418591)
(0.000366273 0.0046494 0.423735)
(-0.000366321 0.00464939 0.423735)
(-0.001061 0.00440692 0.418591)
(-0.00164213 0.00396007 0.408607)
(-0.00209687 0.00335923 0.394372)
(-0.00234309 0.00270887 0.376787)
(0.00637504 0.00739636 0.6039)
(0.00566295 0.00906544 0.630387)
(0.00443692 0.0105831 0.651704)
(0.00285018 0.0117114 0.666607)
(0.000982463 0.0123193 0.674269)
(-0.000982546 0.0123193 0.674269)
(-0.00285026 0.0117114 0.666607)
(-0.00443701 0.0105831 0.651704)
(-0.00566303 0.0090654 0.630387)
(-0.00637512 0.00739631 0.6039)
(0.0116737 0.0135493 0.809996)
(0.0102978 0.0164197 0.843112)
(0.0080431 0.0190033 0.869562)
(0.00514408 0.0209138 0.887979)
(0.00176999 0.0219376 0.897425)
(-0.00177011 0.0219376 0.897425)
(-0.0051442 0.0209137 0.887979)
(-0.00804322 0.0190033 0.869562)
(-0.0102979 0.0164197 0.843112)
(-0.0116738 0.0135493 0.809996)
(0.0174084 0.0201756 0.994299)
(0.0152409 0.0241543 1.03183)
(0.0118482 0.0277004 1.06154)
(0.00754477 0.0303043 1.08213)
(0.0025908 0.0316927 1.09266)
(-0.00259096 0.0316927 1.09266)
(-0.00754493 0.0303043 1.08213)
(-0.0118484 0.0277003 1.06154)
(-0.0152411 0.0241542 1.03183)
(-0.0174086 0.0201756 0.994298)
(0.0228591 0.0264202 1.15677)
(0.019849 0.0312108 1.1967)
(0.0153442 0.0354331 1.22798)
(0.00972655 0.0385096 1.24956)
(0.00333268 0.0401413 1.26055)
(-0.00333287 0.0401413 1.26055)
(-0.00972674 0.0385096 1.24956)
(-0.0153444 0.0354331 1.22798)
(-0.0198492 0.0312107 1.1967)
(-0.0228593 0.0264201 1.15677)
(0.0274607 0.0316212 1.29791)
(0.0236332 0.0368011 1.33847)
(0.0181557 0.0413056 1.36992)
(0.0114536 0.0445606 1.39149)
(0.00391515 0.0462774 1.40245)
(-0.00391539 0.0462774 1.40245)
(-0.0114538 0.0445606 1.39149)
(-0.0181559 0.0413056 1.36992)
(-0.0236334 0.036801 1.33847)
(-0.0274609 0.0316211 1.29791)
(0.0308082 0.0353041 1.41859)
(0.0262636 0.0403949 1.45835)
(0.0200405 0.0447495 1.48888)
(0.0125784 0.0478672 1.50969)
(0.0042887 0.0495021 1.52023)
(-0.00428896 0.0495021 1.52023)
(-0.0125787 0.0478672 1.50969)
(-0.0200407 0.0447495 1.48888)
(-0.0262638 0.0403949 1.45835)
(-0.0308085 0.035304 1.41859)
(0.0326949 0.0372091 1.51977)
(0.0275932 0.0417476 1.55784)
(0.0208939 0.0455204 1.58672)
(0.0130379 0.0481957 1.60624)
(0.00443229 0.0495889 1.61606)
(-0.00443257 0.0495889 1.61606)
(-0.0130382 0.0481957 1.60624)
(-0.0208942 0.0455204 1.58672)
(-0.0275934 0.0417476 1.55784)
(-0.0326951 0.0372091 1.51977)
(0.0331175 0.0376276 1.60232)
(0.027615 0.0408031 1.63889)
(0.0206804 0.0435557 1.66561)
(0.0128108 0.045481 1.68341)
(0.00433922 0.0464741 1.69229)
(-0.00433951 0.0464741 1.69229)
(-0.0128111 0.045481 1.68341)
(-0.0206807 0.0435557 1.66561)
(-0.0276152 0.0408031 1.63889)
(-0.0331177 0.0376276 1.60232)
(7.42969e-05 0.000100888 0.127647)
(5.14567e-05 0.000128077 0.133973)
(3.10025e-05 0.000143635 0.139081)
(1.86595e-05 0.000151085 0.142667)
(6.01209e-06 0.000154562 0.144515)
(-6.02412e-06 0.000154561 0.144515)
(-1.86718e-05 0.000151083 0.142667)
(-3.10153e-05 0.00014363 0.139081)
(-5.14695e-05 0.000128069 0.133973)
(-7.43091e-05 0.000100878 0.127647)
(0.000942081 0.00112787 0.36915)
(0.000806696 0.00139926 0.386328)
(0.000615116 0.0016268 0.400175)
(0.000392031 0.00178937 0.409876)
(0.000134443 0.00187606 0.414872)
(-0.00013448 0.00187605 0.414872)
(-0.000392069 0.00178936 0.409876)
(-0.000615155 0.00162679 0.400175)
(-0.000806734 0.00139924 0.386328)
(-0.000942117 0.00112784 0.36915)
(0.00258845 0.00305195 0.592769)
(0.00225603 0.00375336 0.618869)
(0.00174858 0.00436407 0.639819)
(0.00111741 0.00481112 0.654462)
(0.000384253 0.00505049 0.66199)
(-0.000384318 0.00505049 0.66199)
(-0.00111748 0.00481111 0.654462)
(-0.00174865 0.00436405 0.639819)
(-0.0022561 0.00375333 0.618868)
(-0.00258851 0.00305191 0.592769)
(0.0048389 0.00566852 0.797578)
(0.00423054 0.00690718 0.830604)
(0.00329004 0.00799702 0.856958)
(0.00210094 0.00879834 0.875321)
(0.000722472 0.0092271 0.884744)
(-0.000722565 0.00922709 0.884744)
(-0.00210103 0.00879833 0.875321)
(-0.00329013 0.00799699 0.856958)
(-0.00423063 0.00690715 0.830604)
(-0.00483899 0.00566847 0.797578)
(0.00739419 0.008621 0.983003)
(0.00645017 0.0103934 1.02098)
(0.00501011 0.0119533 1.05106)
(0.00319184 0.013098 1.07194)
(0.00109647 0.0137087 1.08263)
(-0.00109659 0.0137087 1.08263)
(-0.00319196 0.0130979 1.07194)
(-0.00501023 0.0119533 1.05106)
(-0.00645028 0.0103934 1.02098)
(-0.0073943 0.00862094 0.983003)
(0.00995296 0.0115525 1.14884)
(0.00863866 0.013757 1.18988)
(0.00668618 0.0156863 1.22211)
(0.00424536 0.017095 1.2444)
(0.00145602 0.0178437 1.25578)
(-0.00145617 0.0178437 1.25578)
(-0.00424551 0.017095 1.2444)
(-0.00668633 0.0156863 1.22211)
(-0.0086388 0.013757 1.18988)
(-0.00995308 0.0115525 1.14884)
(0.0122411 0.0141417 1.29519)
(0.0105517 0.0166013 1.33757)
(0.00812607 0.0187328 1.37057)
(0.00513863 0.0202783 1.39329)
(0.00175882 0.0210959 1.40485)
(-0.00175899 0.0210959 1.40485)
(-0.0051388 0.0202783 1.39329)
(-0.00812624 0.0187327 1.37057)
(-0.0105518 0.0166013 1.33757)
(-0.0122413 0.0141416 1.29519)
(0.0140319 0.0161211 1.42239)
(0.0119966 0.018613 1.46465)
(0.00918346 0.0207425 1.49727)
(0.00578012 0.0222733 1.5196)
(0.00197369 0.0230785 1.53093)
(-0.00197388 0.0230785 1.53093)
(-0.00578032 0.0222733 1.5196)
(-0.00918365 0.0207425 1.49727)
(-0.0119968 0.018613 1.46465)
(-0.014032 0.016121 1.42239)
(0.01518 0.0173087 1.53078)
(0.0128587 0.0195999 1.57193)
(0.00977176 0.0215068 1.60335)
(0.0061156 0.0228639 1.62469)
(0.00208218 0.0235726 1.63545)
(-0.00208239 0.0235726 1.63545)
(-0.00611581 0.0228639 1.62469)
(-0.00977196 0.0215067 1.60335)
(-0.0128589 0.0195999 1.57193)
(-0.0151802 0.0173087 1.53078)
(0.0156386 0.0177956 1.62061)
(0.0130893 0.0194731 1.6608)
(0.00983932 0.0209134 1.69036)
(0.00611292 0.0219237 1.71015)
(0.00207359 0.0224459 1.72006)
(-0.00207381 0.0224459 1.72006)
(-0.00611313 0.0219237 1.71015)
(-0.00983952 0.0209134 1.69036)
(-0.0130895 0.0194731 1.6608)
(-0.0156388 0.0177956 1.62061)
(9.54894e-06 1.15419e-05 0.12631)
(6.37992e-06 1.6132e-05 0.132576)
(3.32802e-06 1.9229e-05 0.137634)
(2.49072e-06 2.09826e-05 0.141185)
(8.23551e-07 2.19948e-05 0.143015)
(-8.32854e-07 2.19941e-05 0.143015)
(-2.50009e-06 2.09804e-05 0.141185)
(-3.33755e-06 1.92253e-05 0.137634)
(-6.38949e-06 1.61264e-05 0.132576)
(-9.55768e-06 1.15346e-05 0.12631)
(0.0003103 0.000362334 0.365382)
(0.000270824 0.000452796 0.382411)
(0.000209499 0.000531965 0.396132)
(0.000135117 0.000590378 0.405748)
(4.65701e-05 0.000622084 0.410699)
(-4.65989e-05 0.000622082 0.410699)
(-0.000135146 0.000590372 0.405748)
(-0.000209528 0.000531955 0.396132)
(-0.000270853 0.000452781 0.382411)
(-0.000310326 0.000362314 0.365382)
(0.000931492 0.00108403 0.587152)
(0.000821131 0.00134125 0.61309)
(0.000642238 0.00157035 0.633909)
(0.000413184 0.00174127 0.648467)
(0.000142522 0.00183372 0.655954)
(-0.000142571 0.00183372 0.655954)
(-0.000413233 0.00174126 0.648467)
(-0.000642287 0.00157033 0.633909)
(-0.000821179 0.00134123 0.61309)
(-0.000931536 0.001084 0.587151)
(0.00182834 0.00212282 0.790983)
(0.0016131 0.00260221 0.823946)
(0.00126394 0.00303082 0.850259)
(0.00081149 0.00335066 0.868608)
(0.000279773 0.00352318 0.878029)
(-0.000279842 0.00352318 0.878029)
(-0.000811559 0.00335065 0.868608)
(-0.00126401 0.0030308 0.850259)
(-0.00161317 0.00260218 0.823945)
(-0.0018284 0.00212278 0.790982)
(0.00289314 0.00334955 0.976447)
(0.00254531 0.00406334 1.01456)
(0.00199111 0.0047002 1.04479)
(0.00127492 0.00517374 1.0658)
(0.000439045 0.00542829 1.07656)
(-0.000439135 0.00542828 1.07656)
(-0.00127501 0.00517373 1.0658)
(-0.0019912 0.00470018 1.04479)
(-0.0025454 0.00406331 1.01456)
(-0.00289321 0.00334951 0.976447)
(0.00400487 0.00462045 1.14335)
(0.0035056 0.00553774 1.18482)
(0.00273249 0.00635106 1.21745)
(0.0017437 0.00695241 1.24004)
(0.000599509 0.00727431 1.2516)
(-0.000599619 0.00727431 1.2516)
(-0.00174381 0.0069524 1.24004)
(-0.0027326 0.00635104 1.21745)
(-0.0035057 0.00553771 1.18482)
(-0.00400496 0.00462042 1.14335)
(0.00504317 0.00579393 1.29168)
(0.00438488 0.00684676 1.33483)
(0.00340097 0.00777114 1.3685)
(0.00216149 0.00844966 1.39173)
(0.000741652 0.00881106 1.40357)
(-0.000741781 0.00881106 1.40357)
(-0.00216161 0.00844965 1.39173)
(-0.0034011 0.00777112 1.3685)
(-0.004385 0.00684673 1.33483)
(-0.00504328 0.00579389 1.29168)
(0.00590007 0.00674245 1.42158)
(0.00508898 0.00783671 1.46494)
(0.0039233 0.00878437 1.49852)
(0.00248161 0.00947355 1.52156)
(0.000849434 0.0098384 1.53327)
(-0.000849579 0.00983839 1.53327)
(-0.00248175 0.00947354 1.52156)
(-0.00392344 0.00878435 1.49852)
(-0.0050891 0.00783669 1.46494)
(-0.00590019 0.00674241 1.42158)
(0.00649922 0.0073718 1.53315)
(0.0055535 0.00840319 1.57571)
(0.00424902 0.00927254 1.60833)
(0.00267172 0.00989729 1.63054)
(0.000911718 0.0102253 1.64177)
(-0.000911875 0.0102253 1.64177)
(-0.00267188 0.00989729 1.63054)
(-0.00424917 0.00927253 1.60833)
(-0.00555364 0.00840317 1.57571)
(-0.00649934 0.00737178 1.53315)
(0.0068049 0.00771081 1.62633)
(0.00573912 0.0084934 1.66824)
(0.00434085 0.00916428 1.69919)
(0.00270819 0.00963789 1.71997)
(0.000920513 0.0098837 1.73038)
(-0.000920676 0.0098837 1.73038)
(-0.00270835 0.00963789 1.71997)
(-0.004341 0.00916428 1.69919)
(-0.00573927 0.00849339 1.66824)
(-0.00680503 0.0077108 1.62633)
(6.83173e-06 1.10373e-05 0.125991)
(2.68181e-06 1.44103e-05 0.132235)
(3.26454e-07 1.53708e-05 0.137269)
(-8.39763e-08 1.53241e-05 0.140803)
(-1.13404e-07 1.51868e-05 0.142624)
(1.06394e-07 1.51862e-05 0.142624)
(7.70449e-08 1.53225e-05 0.140803)
(-3.33516e-07 1.53681e-05 0.137269)
(-2.68864e-06 1.44062e-05 0.132235)
(-6.83777e-06 1.10323e-05 0.125991)
(0.000116167 0.000141998 0.364319)
(9.54768e-05 0.000177681 0.381282)
(7.10208e-05 0.000205441 0.394938)
(4.48387e-05 0.000224769 0.404507)
(1.52884e-05 0.000234981 0.409434)
(-1.53099e-05 0.00023498 0.409434)
(-4.48599e-05 0.000224765 0.404507)
(-7.10422e-05 0.000205434 0.394938)
(-9.54973e-05 0.00017767 0.381282)
(-0.000116185 0.000141984 0.364318)
(0.000349218 0.000414596 0.585434)
(0.000300312 0.000514526 0.61129)
(0.000231321 0.000599185 0.632029)
(0.000147607 0.000661033 0.64653)
(5.07121e-05 0.000694175 0.653987)
(-5.07483e-05 0.000694172 0.653987)
(-0.000147643 0.000661026 0.64653)
(-0.000231357 0.000599173 0.632029)
(-0.000300347 0.00051451 0.61129)
(-0.000349249 0.000414576 0.585434)
(0.000694613 0.000815391 0.788867)
(0.00060535 0.0010039 0.821774)
(0.000470938 0.00116806 0.848033)
(0.000301285 0.00128944 0.866346)
(0.000103701 0.00135467 0.875747)
(-0.000103752 0.00135467 0.875747)
(-0.000301336 0.00128943 0.866346)
(-0.000470988 0.00116804 0.848033)
(-0.000605398 0.00100388 0.821774)
(-0.000694656 0.000815365 0.788867)
(0.00111794 0.0013033 0.974296)
(0.000977418 0.0015894 1.01243)
(0.000762178 0.00184085 1.04267)
(0.000487431 0.00202712 1.06369)
(0.000167771 0.00212715 1.07447)
(-0.000167837 0.00212715 1.07447)
(-0.000487496 0.00202712 1.06369)
(-0.000762242 0.00184083 1.04267)
(-0.00097748 0.00158938 1.01243)
(-0.001118 0.00130327 0.974295)
(0.00157488 0.00182579 1.14157)
(0.0013747 0.00220126 1.18317)
(0.00107056 0.0025312 1.21592)
(0.000683238 0.00277494 1.23861)
(0.000234939 0.00290547 1.25022)
(-0.000235019 0.00290546 1.25022)
(-0.000683317 0.00277493 1.23861)
(-0.00107063 0.00253118 1.21592)
(-0.00137477 0.00220124 1.18317)
(-0.00157494 0.00182576 1.14157)
(0.00201664 0.00232547 1.29067)
(0.00175224 0.00276557 1.33409)
(0.00135971 0.00314993 1.36802)
(0.000864961 0.00343228 1.39143)
(0.000296942 0.00358283 1.40338)
(-0.000297035 0.00358282 1.40338)
(-0.000865053 0.00343227 1.39143)
(-0.0013598 0.00314992 1.36802)
(-0.00175233 0.00276555 1.33409)
(-0.00201672 0.00232544 1.29067)
(0.00239583 0.00274614 1.42167)
(0.00206794 0.00321309 1.46547)
(0.00159639 0.00361636 1.49943)
(0.00101119 0.00391007 1.52276)
(0.000346378 0.00406578 1.53462)
(-0.000346483 0.00406578 1.53462)
(-0.00101129 0.00391007 1.52276)
(-0.00159649 0.00361634 1.49943)
(-0.00206803 0.00321307 1.46547)
(-0.00239591 0.00274612 1.42167)
(0.00267569 0.00304216 1.53459)
(0.00228999 0.0034915 1.57775)
(0.00175532 0.00387001 1.61088)
(0.00110555 0.00414245 1.63346)
(0.000377585 0.00428569 1.64488)
(-0.000377699 0.00428569 1.64488)
(-0.00110566 0.00414245 1.63346)
(-0.00175543 0.00387 1.61088)
(-0.00229009 0.00349148 1.57775)
(-0.00267579 0.00304214 1.53459)
(0.00283561 0.00321947 1.62924)
(0.00239607 0.00356995 1.67191)
(0.00181623 0.00386901 1.70347)
(0.00113512 0.00408046 1.72468)
(0.00038616 0.00419033 1.73533)
(-0.00038628 0.00419033 1.73533)
(-0.00113523 0.00408045 1.72468)
(-0.00181635 0.003869 1.70347)
(-0.00239618 0.00356994 1.67191)
(-0.00283571 0.00321946 1.62924)
(-6.67862e-07 -2.45458e-07 0.125843)
(-1.47145e-06 9.22712e-08 0.13208)
(-1.58747e-06 -8.84933e-08 0.137108)
(-1.04109e-06 -3.78267e-07 0.140637)
(-3.76982e-07 -5.44627e-07 0.142456)
(3.71853e-07 -5.45014e-07 0.142456)
(1.03606e-06 -3.79442e-07 0.140637)
(1.58254e-06 -9.04404e-08 0.137108)
(1.46667e-06 8.94817e-08 0.13208)
(6.63804e-07 -2.48889e-07 0.125843)
(3.08e-05 3.70809e-05 0.363847)
(2.51987e-05 4.72807e-05 0.380787)
(1.87635e-05 5.5337e-05 0.394422)
(1.19453e-05 6.10965e-05 0.403976)
(4.08119e-06 6.41908e-05 0.408896)
(-4.09678e-06 6.41898e-05 0.408896)
(-1.19606e-05 6.10932e-05 0.403976)
(-1.87784e-05 5.53316e-05 0.394422)
(-2.52131e-05 4.72731e-05 0.380787)
(-3.08123e-05 3.70715e-05 0.363847)
(0.000107526 0.0001263 0.584666)
(9.29613e-05 0.000158614 0.610489)
(7.20596e-05 0.000186403 0.6312)
(4.62522e-05 0.000207079 0.645681)
(1.59289e-05 0.000218265 0.653127)
(-1.59551e-05 0.000218264 0.653127)
(-4.62779e-05 0.000207074 0.645681)
(-7.20846e-05 0.000186394 0.631199)
(-9.29854e-05 0.000158602 0.610489)
(-0.000107547 0.000126286 0.584666)
(0.000229007 0.000266605 0.78789)
(0.000200906 0.000331419 0.82077)
(0.000157328 0.000388569 0.847007)
(0.000101168 0.000431448 0.865305)
(3.49023e-05 0.000454671 0.8747)
(-3.49391e-05 0.000454668 0.8747)
(-0.000101204 0.000431442 0.865305)
(-0.000157363 0.000388558 0.847007)
(-0.000200939 0.000331404 0.82077)
(-0.000229037 0.000266587 0.78789)
(0.000384821 0.000445446 0.973242)
(0.000338855 0.000547924 1.01138)
(0.000265993 0.000639002 1.04162)
(0.000170943 0.000707352 1.06264)
(5.89722e-05 0.000744309 1.07342)
(-5.90193e-05 0.000744307 1.07342)
(-0.000170989 0.000707345 1.06264)
(-0.000266037 0.00063899 1.04162)
(-0.000338897 0.000547908 1.01138)
(-0.000384859 0.000445427 0.973241)
(0.000559374 0.000644306 1.14059)
(0.000491933 0.000783033 1.18224)
(0.000385669 0.000906258 1.21503)
(0.000247329 0.000998389 1.23776)
(8.52413e-05 0.00104805 1.24938)
(-8.52985e-05 0.00104804 1.24938)
(-0.000247385 0.000998381 1.23776)
(-0.000385723 0.000906245 1.21503)
(-0.000491985 0.000783016 1.18224)
(-0.000559421 0.000644286 1.14059)
(0.00073408 0.000841293 1.28994)
(0.000642796 0.00100807 1.33347)
(0.000502159 0.0011553 1.36748)
(0.000320971 0.00126467 1.39097)
(0.00011044 0.00132335 1.40295)
(-0.000110507 0.00132335 1.40295)
(-0.000321037 0.00126466 1.39097)
(-0.000502222 0.00115529 1.36748)
(-0.000642855 0.00100806 1.33347)
(-0.000734134 0.000841273 1.28994)
(0.000889814 0.00101377 1.42134)
(0.00077415 0.00119464 1.46531)
(0.000601589 0.00135252 1.49941)
(0.000382831 0.00146869 1.52285)
(0.000131426 0.00153063 1.53478)
(-0.0001315 0.00153063 1.53478)
(-0.000382905 0.00146869 1.52285)
(-0.00060166 0.00135251 1.49941)
(-0.000774217 0.00119463 1.46531)
(-0.000889876 0.00101375 1.42134)
(0.00101095 0.00114258 1.53477)
(0.000871969 0.00132027 1.57816)
(0.000672574 0.00147135 1.61149)
(0.000425437 0.00158099 1.63423)
(0.000145596 0.0016389 1.64573)
(-0.000145678 0.0016389 1.64573)
(-0.000425517 0.00158098 1.63423)
(-0.000672652 0.00147134 1.61149)
(-0.000872042 0.00132026 1.57816)
(-0.00101102 0.00114257 1.53477)
(0.00108747 0.00122906 1.62999)
(0.000925046 0.00137154 1.67297)
(0.000705133 0.00149276 1.70478)
(0.000442367 0.00157892 1.72617)
(0.000150755 0.00162383 1.73691)
(-0.000150842 0.00162383 1.73691)
(-0.000442452 0.00157892 1.72617)
(-0.000705215 0.00149276 1.70478)
(-0.000925125 0.00137153 1.67296)
(-0.00108754 0.00122905 1.62999)
(9.63245e-08 7.83538e-07 0.125824)
(-6.55621e-07 1.14008e-06 0.132059)
(-8.62788e-07 1.01577e-06 0.137084)
(-6.41027e-07 7.74125e-07 0.140611)
(-2.40822e-07 6.15623e-07 0.142429)
(2.37209e-07 6.15348e-07 0.142429)
(6.37498e-07 7.73307e-07 0.140611)
(8.59417e-07 1.01442e-06 0.137084)
(6.52484e-07 1.13823e-06 0.132059)
(-9.89897e-08 7.81342e-07 0.125824)
(9.16533e-06 1.21712e-05 0.363747)
(6.37425e-06 1.568e-05 0.380677)
(4.15847e-06 1.78711e-05 0.394303)
(2.44497e-06 1.92156e-05 0.40385)
(7.97311e-07 1.98832e-05 0.408766)
(-8.08259e-07 1.98825e-05 0.408766)
(-2.45568e-06 1.92133e-05 0.40385)