/*--------------------------------*- C++ -*----------------------------------*\
| =========                 |                                                 |
| \\      /  F ield         | OpenFOAM: The Open Source CFD Toolbox           |
|  \\    /   O peration     | Version:  2106                                  |
|   \\  /    A nd           | Website:  www.openfoam.com                      |
|    \\/     M anipulation  |                                                 |
\*---------------------------------------------------------------------------*/
FoamFile
{
    version     2.0;
    format      ascii;
    arch        "LSB;label=32;scalar=64";
    class       volVectorField;
    location    "0.33";
    object      U;
}
// * * * * * * * * * * * * * * * * * * * * * * * * * * * * * * * * * * * * * //

dimensions      [0 1 -1 0 0 0 0];

internalField   nonuniform List<vector> 
10000
(
(0.0625662 0.0737253 0.345112)
(0.0533608 0.0838461 0.359593)
(0.0398506 0.0929977 0.370958)
(0.0247216 0.0993802 0.378808)
(0.00837799 0.10268 0.382796)
(-0.00837801 0.10268 0.382796)
(-0.0247216 0.0993802 0.378808)
(-0.0398507 0.0929977 0.370958)
(-0.0533609 0.0838461 0.359593)
(-0.0625663 0.0737253 0.345112)
(0.172017 0.204083 0.727913)
(0.1452 0.231312 0.747569)
(0.108397 0.25526 0.762213)
(0.0670641 0.271836 0.772114)
(0.0227007 0.280385 0.777064)
(-0.0227008 0.280385 0.777064)
(-0.0670642 0.271836 0.772114)
(-0.108398 0.25526 0.762213)
(-0.1452 0.231312 0.747569)
(-0.172017 0.204083 0.727913)
(0.222473 0.264174 0.923896)
(0.185679 0.295835 0.939732)
(0.137726 0.32348 0.950803)
(0.0847851 0.342389 0.958111)
(0.0286281 0.352077 0.961696)
(-0.0286282 0.352077 0.961696)
(-0.0847851 0.342389 0.958111)
(-0.137726 0.32348 0.950803)
(-0.185679 0.295835 0.939732)
(-0.222473 0.264174 0.923896)
(0.237307 0.28134 1.02307)
(0.196104 0.311122 1.03358)
(0.14455 0.337176 1.04026)
(0.0885695 0.354793 1.04452)
(0.0298374 0.36376 1.04656)
(-0.0298375 0.36376 1.04656)
(-0.0885696 0.354793 1.04452)
(-0.14455 0.337176 1.04026)
(-0.196104 0.311122 1.03358)
(-0.237307 0.28134 1.02307)
(0.235135 0.278274 1.07145)
(0.192692 0.30412 1.07741)
(0.141275 0.326866 1.08054)
(0.0862089 0.342109 1.08242)
(0.028985 0.349817 1.08327)
(-0.0289852 0.349817 1.08327)
(-0.0862091 0.342109 1.08242)
(-0.141275 0.326866 1.08054)
(-0.192692 0.30412 1.07741)
(-0.235135 0.278274 1.07145)
(0.223868 0.264466 1.09254)
(0.182047 0.285665 1.09511)
(0.132822 0.304473 1.09576)
(0.0807444 0.316998 1.096)
(0.0270988 0.323293 1.09605)
(-0.027099 0.323293 1.09605)
(-0.0807446 0.316998 1.096)
(-0.132822 0.304473 1.09576)
(-0.182047 0.285665 1.09511)
(-0.223868 0.264466 1.09254)
(0.207275 0.244247 1.09912)
(0.167251 0.260574 1.09938)
(0.121463 0.275205 1.09845)
(0.0735733 0.284925 1.09767)
(0.0246494 0.289788 1.09723)
(-0.0246496 0.289788 1.09723)
(-0.0735736 0.284925 1.09767)
(-0.121463 0.275205 1.09845)
(-0.167252 0.260574 1.09938)
(-0.207275 0.244247 1.09912)
(0.187712 0.220375 1.09837)
(0.150274 0.231894 1.09716)
(0.108659 0.242358 1.09533)
(0.0655965 0.24934 1.094)
(0.0219411 0.252831 1.0933)
(-0.0219413 0.252831 1.0933)
(-0.0655968 0.24934 1.094)
(-0.108659 0.242358 1.09533)
(-0.150274 0.231894 1.09716)
(-0.187712 0.220375 1.09837)
(0.166735 0.194667 1.0943)
(0.132508 0.201591 1.09219)
(0.0954142 0.208039 1.08993)
(0.0574164 0.212468 1.08835)
(0.019175 0.214703 1.08755)
(-0.0191753 0.214703 1.08755)
(-0.0574167 0.212468 1.08835)
(-0.0954145 0.208039 1.08993)
(-0.132508 0.201591 1.09219)
(-0.166735 0.194667 1.0943)
(0.145521 0.168772 1.08915)
(0.115171 0.169663 1.08656)
(0.082352 0.172759 1.08415)
(0.0493718 0.175018 1.08252)
(0.0164589 0.176179 1.08171)
(-0.0164593 0.176179 1.08171)
(-0.0493721 0.175018 1.08252)
(-0.0823523 0.172759 1.08415)
(-0.115171 0.169663 1.08656)
(-0.145522 0.168772 1.08915)
(0.0111838 0.0142875 0.26681)
(0.00939496 0.0175752 0.279087)
(0.00709378 0.0202159 0.289141)
(0.00449008 0.022026 0.296139)
(0.00153622 0.022969 0.299721)
(-0.00153625 0.022969 0.299721)
(-0.00449011 0.022026 0.296139)
(-0.00709381 0.0202159 0.289141)
(-0.00939499 0.0175752 0.279087)
(-0.0111838 0.0142875 0.26681)
(0.0542473 0.0656463 0.630415)
(0.046574 0.0789753 0.652405)
(0.0356403 0.0903944 0.67004)
(0.0225295 0.0984837 0.682167)
(0.0077094 0.102729 0.688323)
(-0.00770949 0.102729 0.688323)
(-0.0225296 0.0984837 0.682167)
(-0.0356404 0.0903944 0.67004)
(-0.0465741 0.0789753 0.652405)
(-0.0542474 0.0656463 0.630415)
(0.0973182 0.116259 0.877908)
(0.0830078 0.137473 0.901788)
(0.0631806 0.155674 0.920516)
(0.0396973 0.168513 0.933238)
(0.0135433 0.175217 0.939644)
(-0.0135435 0.175217 0.939644)
(-0.0396975 0.168513 0.933238)
(-0.0631808 0.155673 0.920516)
(-0.0830079 0.137473 0.901788)
(-0.0973183 0.116259 0.877908)
(0.132983 0.1577 1.04602)
(0.112451 0.183605 1.06806)
(0.0850308 0.205719 1.08492)
(0.0531189 0.221204 1.09623)
(0.0180701 0.229243 1.10188)
(-0.0180703 0.229243 1.10188)
(-0.0531191 0.221204 1.09623)
(-0.085031 0.205719 1.08492)
(-0.112451 0.183604 1.06806)
(-0.132984 0.1577 1.04602)
(0.158324 0.186687 1.15917)
(0.132712 0.214215 1.17777)
(0.0997094 0.237553 1.19161)
(0.061962 0.253772 1.20077)
(0.0210231 0.262144 1.2053)
(-0.0210234 0.262144 1.2053)
(-0.0619623 0.253772 1.20077)
(-0.0997097 0.237553 1.19161)
(-0.132713 0.214215 1.17777)
(-0.158324 0.186687 1.15917)
(0.17343 0.203449 1.23402)
(0.144121 0.230125 1.24874)
(0.107613 0.252537 1.25935)
(0.0665472 0.268002 1.26626)
(0.0225238 0.275941 1.26964)
(-0.0225242 0.275941 1.26964)
(-0.0665475 0.268002 1.26626)
(-0.107614 0.252537 1.25935)
(-0.144122 0.230125 1.24874)
(-0.17343 0.203449 1.23402)
(0.179414 0.20939 1.28241)
(0.147794 0.233342 1.29342)
(0.109694 0.253221 1.30106)
(0.0675205 0.266851 1.30594)
(0.0228007 0.273814 1.3083)
(-0.0228011 0.273814 1.3083)
(-0.0675208 0.266851 1.30594)
(-0.109694 0.253221 1.30106)
(-0.147795 0.233342 1.29342)
(-0.179414 0.20939 1.28241)
(0.177665 0.2062 1.3127)
(0.145063 0.226091 1.32048)
(0.107042 0.242323 1.32563)
(0.065602 0.253397 1.32883)
(0.0221049 0.259035 1.33035)
(-0.0221053 0.259035 1.33035)
(-0.0656025 0.253397 1.32883)
(-0.107043 0.242323 1.32563)
(-0.145063 0.22609 1.32047)
(-0.177665 0.2062 1.3127)
(0.169683 0.195604 1.33076)
(0.137382 0.210551 1.33592)
(0.100793 0.222398 1.33913)
(0.0615055 0.230497 1.34103)
(0.0206801 0.234617 1.34191)
(-0.0206806 0.234617 1.34191)
(-0.061506 0.230497 1.34103)
(-0.100794 0.222397 1.33913)
(-0.137382 0.210551 1.33592)
(-0.169684 0.195604 1.33076)
(0.157065 0.180396 1.3408)
(0.126327 0.187911 1.34398)
(0.091925 0.195091 1.34574)
(0.0558121 0.200038 1.34669)
(0.0187199 0.202552 1.3471)
(-0.0187205 0.202552 1.3471)
(-0.0558126 0.200037 1.34669)
(-0.0919255 0.195091 1.34574)
(-0.126328 0.18791 1.34398)
(-0.157066 0.180396 1.3408)
(0.0011074 0.00123608 0.158415)
(0.00111986 0.00157925 0.166754)
(0.000872984 0.00198386 0.173716)
(0.000584147 0.00228358 0.178643)
(0.000203527 0.00244959 0.181193)
(-0.000203559 0.00244959 0.181193)
(-0.000584179 0.00228357 0.178643)
(-0.000873015 0.00198385 0.173716)
(-0.00111989 0.00157924 0.166754)
(-0.00110743 0.00123606 0.158415)
(0.0178069 0.0206638 0.443861)
(0.0160135 0.0252071 0.464165)
(0.0125313 0.0294846 0.480833)
(0.00804694 0.0326432 0.492529)
(0.00277258 0.0343396 0.498549)
(-0.00277267 0.0343396 0.498549)
(-0.00804703 0.0326432 0.492529)
(-0.0125313 0.0294846 0.480833)
(-0.0160136 0.0252071 0.464165)
(-0.017807 0.0206638 0.443861)
(0.0405007 0.0471475 0.688572)
(0.0357621 0.0566274 0.716265)
(0.0277758 0.0652757 0.738634)
(0.0176893 0.0715965 0.754198)
(0.00607278 0.0749615 0.762167)
(-0.00607294 0.0749615 0.762167)
(-0.0176895 0.0715965 0.754198)
(-0.027776 0.0652756 0.738634)
(-0.0357623 0.0566274 0.716265)
(-0.0405008 0.0471474 0.688572)
(0.064877 0.0755887 0.891863)
(0.0565249 0.0894973 0.923106)
(0.0435715 0.10194 0.947915)
(0.0275687 0.110935 0.965027)
(0.00943525 0.115689 0.973742)
(-0.00943548 0.115689 0.973742)
(-0.0275689 0.110935 0.965027)
(-0.0435717 0.10194 0.947915)
(-0.0565251 0.0894972 0.923106)
(-0.0648771 0.0755886 0.891863)
(0.0865164 0.100691 1.05705)
(0.0745088 0.117553 1.08899)
(0.0570181 0.13241 1.1139)
(0.0358701 0.143045 1.13092)
(0.0122423 0.148628 1.13955)
(-0.0122426 0.148628 1.13955)
(-0.0358704 0.143045 1.13092)
(-0.0570184 0.13241 1.1139)
(-0.0745091 0.117553 1.08899)
(-0.0865166 0.100691 1.05705)
(0.103233 0.119842 1.18898)
(0.0879565 0.137919 1.21965)
(0.0668384 0.153624 1.24314)
(0.0418246 0.164763 1.25905)
(0.0142375 0.170574 1.26707)
(-0.0142379 0.170574 1.26707)
(-0.0418249 0.164763 1.25905)
(-0.0668387 0.153624 1.24314)
(-0.0879568 0.137919 1.21965)
(-0.103233 0.119842 1.18898)
(0.114236 0.132143 1.29278)
(0.0963252 0.14978 1.32097)
(0.0726967 0.164872 1.34218)
(0.0452595 0.175487 1.35642)
(0.0153684 0.180993 1.36355)
(-0.0153689 0.180993 1.36355)
(-0.04526 0.175487 1.35642)
(-0.0726971 0.164872 1.34218)
(-0.0963255 0.14978 1.32097)
(-0.114236 0.132142 1.29278)
(0.119455 0.137548 1.37328)
(0.0996983 0.15332 1.39837)
(0.0747356 0.166572 1.41693)
(0.0462995 0.175822 1.42928)
(0.0156832 0.180597 1.43543)
(-0.0156837 0.180597 1.43543)
(-0.0463 0.175822 1.42928)
(-0.0747361 0.166572 1.41693)
(-0.0996987 0.15332 1.39837)
(-0.119456 0.137548 1.37328)
(0.119337 0.136551 1.4347)
(0.098609 0.149335 1.45657)
(0.0734031 0.159762 1.47248)
(0.0452393 0.16701 1.48294)
(0.0152847 0.170737 1.48811)
(-0.0152853 0.170737 1.48811)
(-0.0452398 0.16701 1.48294)
(-0.0734036 0.159762 1.47248)
(-0.0986094 0.149335 1.45657)
(-0.119337 0.136551 1.4347)
(0.114729 0.130948 1.48056)
(0.0938856 0.138528 1.49972)
(0.0692016 0.145406 1.51311)
(0.0423867 0.150166 1.52178)
(0.0142776 0.1526 1.52603)
(-0.0142782 0.1526 1.52603)
(-0.0423873 0.150166 1.52178)
(-0.0692021 0.145406 1.51311)
(-0.093886 0.138528 1.49971)
(-0.11473 0.130948 1.48056)
(0.000700714 0.000922019 0.13917)
(0.000546324 0.00115635 0.146042)
(0.000373213 0.00132199 0.151634)
(0.00023086 0.00141963 0.155559)
(7.72048e-05 0.00146832 0.157584)
(-7.72331e-05 0.00146832 0.157584)
(-0.000230887 0.00141962 0.155559)
(-0.00037324 0.00132198 0.151634)
(-0.00054635 0.00115634 0.146041)
(-0.000700736 0.000922001 0.13917)
(0.00685162 0.00819968 0.398969)
(0.00594434 0.0101071 0.417192)
(0.00456774 0.0117559 0.431936)
(0.00291255 0.0129381 0.442252)
(0.000999973 0.0135665 0.44756)
(-0.00100006 0.0135665 0.44756)
(-0.00291263 0.012938 0.442252)
(-0.00456782 0.0117559 0.431936)
(-0.00594441 0.010107 0.417192)
(-0.00685168 0.00819963 0.398969)
(0.016753 0.0197938 0.633841)
(0.0146029 0.0240948 0.660685)
(0.0112942 0.0278665 0.682231)
(0.00719179 0.0306015 0.69724)
(0.00246917 0.0320554 0.704941)
(-0.00246931 0.0320554 0.704941)
(-0.00719193 0.0306014 0.69724)
(-0.0112943 0.0278664 0.682231)
(-0.0146031 0.0240947 0.660684)
(-0.0167531 0.0197938 0.633841)
(0.028662 0.0336707 0.841661)
(0.0249002 0.0404872 0.874339)
(0.0192319 0.0464637 0.900311)
(0.0122068 0.0507928 0.918306)
(0.004185 0.053087 0.927509)
(-0.0041852 0.053087 0.927509)
(-0.012207 0.0507928 0.918306)
(-0.0192321 0.0464636 0.900311)
(-0.0249004 0.0404871 0.874339)
(-0.0286622 0.0336706 0.841661)
(0.0405759 0.0474532 1.02223)
(0.0350279 0.0563267 1.05821)
(0.0269421 0.0640609 1.08648)
(0.0170315 0.0696342 1.10596)
(0.00582771 0.0725747 1.11588)
(-0.00582797 0.0725747 1.11588)
(-0.0170317 0.0696342 1.10596)
(-0.0269423 0.0640608 1.08648)
(-0.0350281 0.0563266 1.05821)
(-0.0405761 0.0474531 1.02223)
(0.0510553 0.059445 1.17665)
(0.0437326 0.0695887 1.21379)
(0.0334555 0.0783452 1.24262)
(0.0210543 0.0846119 1.26235)
(0.00718841 0.0879018 1.27237)
(-0.00718873 0.0879018 1.27237)
(-0.0210546 0.0846119 1.26235)
(-0.0334558 0.0783451 1.24262)
(-0.0437329 0.0695887 1.21379)
(-0.0510555 0.0594449 1.17665)
(0.0591676 0.068568 1.30671)
(0.0502411 0.079058 1.34332)
(0.0381998 0.0879956 1.37139)
(0.0239266 0.0943429 1.39048)
(0.00814995 0.0976578 1.40013)
(-0.00815033 0.0976578 1.40013)
(-0.0239269 0.0943429 1.39048)
(-0.0382001 0.0879955 1.37139)
(-0.0502414 0.0790579 1.34332)
(-0.0591679 0.0685679 1.30671)
(0.0643728 0.0742007 1.41456)
(0.0541522 0.0841074 1.44941)
(0.0409058 0.0924067 1.47581)
(0.0254961 0.0982524 1.49365)
(0.0086633 0.101289 1.50263)
(-0.00866373 0.101289 1.50263)
(-0.0254965 0.0982524 1.49365)
(-0.0409061 0.0924067 1.47581)
(-0.0541525 0.0841073 1.44941)
(-0.0643731 0.0742006 1.41456)
(0.0665159 0.0761294 1.50235)
(0.0554192 0.0846254 1.53477)
(0.0415653 0.0915427 1.559)
(0.0257677 0.0963813 1.57523)
(0.00873181 0.0988813 1.58334)
(-0.00873228 0.0988813 1.58334)
(-0.0257682 0.0963813 1.57523)
(-0.0415657 0.0915427 1.559)
(-0.0554196 0.0846254 1.53477)
(-0.0665162 0.0761294 1.50235)
(0.0658064 0.0751262 1.572)
(0.054263 0.0807127 1.60226)
(0.040288 0.0855744 1.62405)
(0.0248117 0.0889452 1.63843)
(0.0083803 0.0906739 1.64556)
(-0.0083808 0.0906739 1.64556)
(-0.0248121 0.0889452 1.63843)
(-0.0402885 0.0855744 1.62405)
(-0.0542634 0.0807127 1.60226)
(-0.0658067 0.0751262 1.572)
(0.000121527 0.000132022 0.12864)
(0.000113117 0.000173787 0.135067)
(8.34029e-05 0.000217132 0.140287)
(5.69917e-05 0.000247494 0.143957)
(1.96604e-05 0.000264671 0.145851)
(-1.96832e-05 0.000264669 0.145851)
(-5.70141e-05 0.000247489 0.143957)
(-8.34246e-05 0.000217123 0.140287)
(-0.000113137 0.000173774 0.135067)
(-0.000121545 0.000132007 0.12864)
(0.00237111 0.00274212 0.372851)
(0.00212104 0.00340053 0.390303)
(0.00166073 0.00400812 0.404431)
(0.00107291 0.00445993 0.41434)
(0.000370379 0.00470505 0.419445)
(-0.000370447 0.00470504 0.419445)
(-0.00107298 0.00445991 0.41434)
(-0.00166079 0.0040081 0.404431)
(-0.0021211 0.0034005 0.390303)
(-0.00237116 0.00274208 0.372851)
(0.00645476 0.00748941 0.598752)
(0.00573287 0.00918036 0.625156)
(0.00449149 0.0107171 0.646411)
(0.00288519 0.0118596 0.661273)
(0.000994512 0.0124751 0.668915)
(-0.000994627 0.0124751 0.668915)
(-0.0028853 0.0118596 0.661273)
(-0.00449159 0.0107171 0.646411)
(-0.00573297 0.00918031 0.625156)
(-0.00645485 0.00748935 0.598752)
(0.0118261 0.0137262 0.804581)
(0.0104319 0.0166365 0.837742)
(0.00814802 0.0192553 0.864239)
(0.00521133 0.0211919 0.882695)
(0.00179314 0.0222298 0.892162)
(-0.0017933 0.0222298 0.892162)
(-0.00521149 0.0211919 0.882694)
(-0.00814817 0.0192552 0.864239)
(-0.010432 0.0166364 0.837742)
(-0.0118262 0.0137261 0.804581)
(0.0176458 0.0204498 0.989414)
(0.0154493 0.0244871 1.02717)
(0.012011 0.0280848 1.05707)
(0.00764884 0.030727 1.07781)
(0.00262659 0.0321359 1.08842)
(-0.0026268 0.0321359 1.08842)
(-0.00764905 0.030727 1.07781)
(-0.0120112 0.0280848 1.05707)
(-0.0154494 0.0244871 1.02717)
(-0.017646 0.0204497 0.989413)
(0.0231838 0.0267935 1.15304)
(0.0201324 0.0316587 1.19338)
(0.0155648 0.035946 1.22502)
(0.00986706 0.0390704 1.24684)
(0.00338092 0.0407276 1.25798)
(-0.00338118 0.0407276 1.25798)
(-0.00986731 0.0390704 1.24684)
(-0.015565 0.035946 1.22502)
(-0.0201326 0.0316586 1.19338)
(-0.0231839 0.0267934 1.15304)
(0.0278653 0.0320843 1.29577)
(0.0239836 0.0373487 1.33692)
(0.0184269 0.0419262 1.36887)
(0.0116256 0.0452343 1.39079)
(0.00397409 0.0469793 1.40194)
(-0.0039744 0.0469792 1.40194)
(-0.0116259 0.0452342 1.39079)
(-0.0184271 0.0419261 1.36887)
(-0.0239839 0.0373487 1.33692)
(-0.0278655 0.0320842 1.29577)
(0.0312768 0.0358375 1.41829)
(0.0266657 0.0410151 1.4588)
(0.0203495 0.0454433 1.48993)
(0.0127734 0.048614 1.51117)
(0.00435534 0.0502768 1.52193)
(-0.00435568 0.0502768 1.52193)
(-0.0127738 0.048614 1.51117)
(-0.0203498 0.0454432 1.48993)
(-0.026666 0.0410151 1.4588)
(-0.031277 0.0358375 1.41829)
(0.0332057 0.0377866 1.5214)
(0.0280269 0.0424058 1.56032)
(0.0212244 0.0462448 1.58988)
(0.0132451 0.0489671 1.60987)
(0.00450285 0.0503849 1.61993)
(-0.00450323 0.0503849 1.61993)
(-0.0132455 0.0489671 1.60987)
(-0.0212247 0.0462447 1.58988)
(-0.0280272 0.0424058 1.56032)
(-0.0332059 0.0377866 1.5214)
(0.0336458 0.0382264 1.60581)
(0.0280574 0.041461 1.6433)
(0.0210134 0.0442633 1.67072)
(0.0130178 0.0462233 1.68899)
(0.00440944 0.0472342 1.69811)
(-0.00440983 0.0472342 1.69811)
(-0.0130182 0.0462233 1.68899)
(-0.0210137 0.0442633 1.67072)
(-0.0280577 0.041461 1.6433)
(-0.0336461 0.0382263 1.60581)
(7.42786e-05 0.000100881 0.125942)
(5.1348e-05 0.000128108 0.132184)
(3.08877e-05 0.000143647 0.137223)
(1.8603e-05 0.000151078 0.140759)
(5.99063e-06 0.000154547 0.142582)
(-6.00823e-06 0.000154545 0.142582)
(-1.86204e-05 0.000151074 0.140759)
(-3.09047e-05 0.00014364 0.137223)
(-5.13637e-05 0.000128099 0.132184)
(-7.42925e-05 0.000100869 0.125942)
(0.000950221 0.00113732 0.3651)
(0.000813737 0.00141115 0.38214)
(0.000620599 0.00164077 0.395875)
(0.000395591 0.00180491 0.405498)
(0.000135667 0.00189246 0.410453)
(-0.00013572 0.00189246 0.410453)
(-0.000395643 0.0018049 0.405498)
(-0.00062065 0.00164075 0.395875)
(-0.000813785 0.00141112 0.38214)
(-0.000950262 0.00113729 0.3651)
(0.00261503 0.00308264 0.587443)
(0.00227948 0.00379166 0.613454)
(0.00176703 0.00440909 0.634336)
(0.00112933 0.00486124 0.648935)
(0.000388367 0.00510338 0.656441)
(-0.000388455 0.00510338 0.656441)
(-0.00112942 0.00486122 0.648935)
(-0.00176712 0.00440906 0.634336)
(-0.00227956 0.00379162 0.613454)
(-0.0026151 0.00308259 0.587443)
(0.00489346 0.00573131 0.791946)
(0.00427885 0.00698488 0.825014)
(0.00332812 0.008088 0.851412)
(0.00212549 0.00889937 0.869811)
(0.000730943 0.00933357 0.879255)
(-0.000731068 0.00933357 0.879255)
(-0.00212562 0.00889935 0.869811)
(-0.00332824 0.00808797 0.851411)
(-0.00427896 0.00698484 0.825013)
(-0.00489355 0.00573125 0.791945)
(0.00748325 0.00872316 0.977895)
(0.00652889 0.0105186 1.01609)
(0.00507205 0.0120989 1.04637)
(0.00323167 0.0132589 1.0674)
(0.0011102 0.013878 1.07817)
(-0.00111036 0.013878 1.07817)
(-0.00323183 0.0132589 1.0674)
(-0.00507221 0.0120989 1.04637)
(-0.00652903 0.0105185 1.01609)
(-0.00748337 0.0087231 0.977894)
(0.0100791 0.0116968 1.14491)
(0.00874965 0.0139315 1.18638)
(0.00677318 0.0158876 1.21898)
(0.0043011 0.0173163 1.24153)
(0.00147521 0.0180757 1.25305)
(-0.0014754 0.0180757 1.25305)
(-0.0043013 0.0173162 1.24153)
(-0.00677337 0.0158876 1.21898)
(-0.00874982 0.0139315 1.18638)
(-0.0100793 0.0116967 1.14491)
(0.0124028 0.0143257 1.29292)
(0.0106929 0.0168208 1.33592)
(0.00823617 0.0189832 1.36944)
(0.00520885 0.0205516 1.39252)
(0.00178293 0.0213814 1.40428)
(-0.00178316 0.0213814 1.40428)
(-0.00520907 0.0205516 1.39252)
(-0.00823638 0.0189832 1.36944)
(-0.0106931 0.0168207 1.33592)
(-0.012403 0.0143257 1.29292)
(0.0142236 0.0163381 1.42205)
(0.0121626 0.0188674 1.46509)
(0.00931191 0.0210289 1.49835)
(0.00586161 0.0225831 1.52114)
(0.00200159 0.0234007 1.5327)
(-0.00200185 0.0234007 1.5327)
(-0.00586186 0.0225831 1.52114)
(-0.00931215 0.0210288 1.49835)
(-0.0121628 0.0188673 1.46509)
(-0.0142238 0.016338 1.42205)
(0.0153932 0.0175483 1.53248)
(0.0130412 0.0198751 1.57453)
(0.00991183 0.0218115 1.60666)
(0.00620385 0.0231899 1.6285)
(0.0021123 0.0239097 1.63952)
(-0.00211258 0.0239097 1.63952)
(-0.00620412 0.0231899 1.6285)
(-0.00991208 0.0218115 1.60666)
(-0.0130415 0.019875 1.57453)
(-0.0153934 0.0175482 1.53248)
(0.015863 0.0180485 1.62429)
(0.0132786 0.0197532 1.66546)
(0.00998274 0.0212162 1.69576)
(0.00620249 0.0222424 1.71606)
(0.00210402 0.0227728 1.72622)
(-0.00210432 0.0227728 1.72622)
(-0.00620277 0.0222424 1.71606)
(-0.00998301 0.0212162 1.69576)
(-0.0132788 0.0197532 1.66546)
(-0.0158632 0.0180485 1.62428)
(9.55866e-06 1.1655e-05 0.124599)
(6.26582e-06 1.62956e-05 0.130782)
(3.1946e-06 1.93607e-05 0.13577)
(2.39872e-06 2.10731e-05 0.139271)
(7.88451e-07 2.20606e-05 0.141075)
(-8.01655e-07 2.20596e-05 0.141075)
(-2.41167e-06 2.10701e-05 0.139271)
(-3.20719e-06 1.93557e-05 0.13577)
(-6.27771e-06 1.62886e-05 0.130782)
(-9.5688e-06 1.16465e-05 0.124599)
(0.000312209 0.000364762 0.361307)
(0.000272232 0.000455913 0.378197)
(0.000210497 0.000535536 0.391804)
(0.00013574 0.000594259 0.40134)
(4.67771e-05 0.000626131 0.40625)
(-4.68166e-05 0.000626128 0.40625)
(-0.000135779 0.000594251 0.40134)
(-0.000210534 0.000535523 0.391804)
(-0.000272267 0.000455894 0.378197)
(-0.000312239 0.000364739 0.361307)
(0.000938652 0.00109256 0.581781)
(0.000827152 0.00135206 0.607628)
(0.000646861 0.00158302 0.628376)
(0.000416142 0.00175531 0.642887)
(0.000143534 0.00184851 0.65035)
(-0.0001436 0.0018485 0.65035)
(-0.000416207 0.0017553 0.642887)
(-0.000646924 0.001583 0.628376)
(-0.000827211 0.00135203 0.607628)
(-0.000938703 0.00109252 0.581781)
(0.00184423 0.00214138 0.78529)
(0.0016269 0.00262551 0.818292)
(0.00127473 0.0030582 0.844648)
(0.000818425 0.0033811 0.863032)
(0.000282159 0.00355528 0.872472)
(-0.000282251 0.00355528 0.872472)
(-0.000818516 0.00338109 0.863032)
(-0.00127482 0.00305817 0.844647)
(-0.00162698 0.00262548 0.818292)
(-0.00184431 0.00214134 0.78529)
(0.00292062 0.00338134 0.971273)
(0.00256941 0.00410283 1.00961)
(0.00201004 0.00474641 1.04004)
(0.0012871 0.00522501 1.06119)
(0.000443238 0.00548229 1.07203)
(-0.000443357 0.00548228 1.07203)
(-0.00128721 0.00522499 1.06119)
(-0.00201015 0.00474638 1.04004)
(-0.00256951 0.00410279 1.00961)
(-0.00292071 0.00338129 0.971273)
(0.00404563 0.00466728 1.13936)
(0.00354137 0.00559516 1.18126)
(0.00276055 0.00641775 1.21426)
(0.00176172 0.00702605 1.23712)
(0.000605709 0.00735168 1.24882)
(-0.000605854 0.00735168 1.24882)
(-0.00176186 0.00702603 1.23712)
(-0.00276069 0.00641773 1.21426)
(-0.00354149 0.00559512 1.18126)
(-0.00404574 0.00466723 1.13936)
(0.00509737 0.00585582 1.28937)
(0.00443225 0.00692152 1.33315)
(0.00343799 0.00785709 1.36735)
(0.00218516 0.0085439 1.39095)
(0.000749787 0.00890975 1.40299)
(-0.000749955 0.00890974 1.40299)
(-0.00218532 0.00854388 1.39095)
(-0.00343814 0.00785706 1.36735)
(-0.00443239 0.00692149 1.33315)
(-0.00509749 0.00585578 1.28937)
(0.00596627 0.00681758 1.42124)
(0.00514642 0.00792588 1.4654)
(0.00396792 0.00888555 1.49962)
(0.00251 0.00958353 1.52313)
(0.000859166 0.00995307 1.53508)
(-0.000859356 0.00995306 1.53508)
(-0.00251018 0.00958352 1.52313)
(-0.00396809 0.00888553 1.49962)
(-0.00514658 0.00792584 1.4654)
(-0.00596641 0.00681754 1.42124)
(0.00657468 0.00745679 1.53489)
(0.00561835 0.00850197 1.57837)
(0.00429897 0.00938279 1.61172)
(0.00270329 0.0100158 1.63444)
(0.000922503 0.0103482 1.64593)
(-0.000922709 0.0103482 1.64593)
(-0.00270349 0.0100158 1.63444)
(-0.00429916 0.00938277 1.61172)
(-0.00561852 0.00850195 1.57837)
(-0.00657483 0.00745676 1.53489)
(0.00688599 0.00780239 1.63009)
(0.00580779 0.00859595 1.67301)
(0.00439309 0.00927593 1.70472)
(0.00274091 0.00975595 1.72602)
(0.000931643 0.0100051 1.7367)
(-0.000931859 0.0100051 1.7367)
(-0.00274112 0.00975594 1.72602)
(-0.00439329 0.00927592 1.70472)
(-0.00580798 0.00859594 1.67301)
(-0.00688616 0.00780238 1.63009)
(6.6552e-06 1.08434e-05 0.12428)
(2.49272e-06 1.4182e-05 0.13044)
(1.71759e-07 1.50912e-05 0.135404)
(-1.82088e-07 1.50063e-05 0.138888)
(-1.48388e-07 1.48486e-05 0.140683)
(1.38777e-07 1.48478e-05 0.140683)
(1.72756e-07 1.50042e-05 0.138888)
(-1.81069e-07 1.50877e-05 0.135404)
(-2.50121e-06 1.41767e-05 0.13044)
(-6.66219e-06 1.08376e-05 0.12428)
(0.000115692 0.000141467 0.360238)
(9.49711e-05 0.000177098 0.377061)
(7.06027e-05 0.000204762 0.390603)
(4.45726e-05 0.000224024 0.400092)
(1.51938e-05 0.000234202 0.404977)
(-1.52224e-05 0.0002342 0.404977)
(-4.46005e-05 0.000224018 0.400092)
(-7.06305e-05 0.000204753 0.390603)
(-9.49963e-05 0.000177084 0.377061)
(-0.000115713 0.000141451 0.360238)
(0.000349192 0.000414563 0.58005)
(0.000300204 0.000514682 0.605812)
(0.000231232 0.000599467 0.62648)
(0.000147563 0.000661423 0.640934)
(5.0694e-05 0.00069463 0.648367)
(-5.0742e-05 0.000694627 0.648367)
(-0.000147609 0.000661414 0.640934)
(-0.000231278 0.000599452 0.62648)
(-0.000300247 0.000514662 0.605812)
(-0.000349228 0.00041454 0.58005)
(0.0006961 0.000817054 0.783154)
(0.000606637 0.00100631 0.816098)
(0.000471991 0.00117112 0.842398)
(0.000301994 0.00129302 0.860745)
(0.000103946 0.00135855 0.870166)
(-0.000104013 0.00135854 0.870166)
(-0.000302059 0.00129301 0.860745)
(-0.000472054 0.0011711 0.842398)
(-0.000606696 0.00100628 0.816097)
(-0.00069615 0.000817024 0.783154)
(0.00112206 0.00130791 0.969095)
(0.000981117 0.00159559 1.00745)
(0.000765186 0.00184844 1.03789)
(0.00048942 0.00203582 1.05906)
(0.000168461 0.00213646 1.06991)
(-0.000168546 0.00213646 1.06991)
(-0.000489503 0.00203581 1.05906)
(-0.000765266 0.00184842 1.03789)
(-0.000981192 0.00159556 1.00745)
(-0.00112213 0.00130788 0.969095)
(0.00158251 0.00183435 1.13755)
(0.00138158 0.00221232 1.17959)
(0.00107611 0.0025445 1.21271)
(0.00068688 0.00278998 1.23566)
(0.0002362 0.00292146 1.24741)
(-0.000236304 0.00292146 1.24741)
(-0.000686981 0.00278997 1.23566)
(-0.00107621 0.00254447 1.21271)
(-0.00138167 0.00221229 1.17959)
(-0.00158259 0.00183431 1.13755)
(0.00202825 0.00233845 1.28833)
(0.00176265 0.0027819 1.33239)
(0.00136805 0.00316924 1.36684)
(0.000870388 0.00345385 1.39063)
(0.000298817 0.00360564 1.40278)
(-0.000298938 0.00360564 1.40278)
(-0.000870506 0.00345384 1.39063)
(-0.00136816 0.00316922 1.36684)
(-0.00176276 0.00278188 1.33239)
(-0.00202835 0.00233842 1.28833)
(0.00241136 0.00276343 1.42131)
(0.00208174 0.0032343 1.46592)
(0.00160734 0.00364099 1.50053)
(0.00101826 0.00393728 1.52432)
(0.000348815 0.00409437 1.53642)
(-0.00034895 0.00409437 1.53642)
(-0.00101839 0.00393727 1.52432)
(-0.00160747 0.00364097 1.50053)
(-0.00208186 0.00323427 1.46592)
(-0.00241146 0.0027634 1.42131)
(0.00269461 0.00306308 1.53632)
(0.0023066 0.00351651 1.58041)
(0.00176835 0.00389847 1.61428)
(0.00111389 0.00417344 1.63737)
(0.000380445 0.00431802 1.64906)
(-0.000380592 0.00431802 1.64906)
(-0.00111403 0.00417343 1.63737)
(-0.00176849 0.00389845 1.61428)
(-0.00230672 0.00351649 1.58041)
(-0.00269472 0.00306306 1.53632)
(0.00285699 0.00324331 1.63301)
(0.00241449 0.00359729 1.6767)
(0.00183047 0.0038992 1.70903)
(0.00114412 0.00411267 1.73076)
(0.000389233 0.0042236 1.74167)
(-0.000389388 0.00422359 1.74167)
(-0.00114427 0.00411266 1.73076)
(-0.00183061 0.00389919 1.70903)
(-0.00241463 0.00359728 1.67669)
(-0.00285711 0.0032433 1.63301)
(-7.23695e-07 -2.85492e-07 0.124135)
(-1.54936e-06 4.72718e-08 0.130287)
(-1.65673e-06 -1.55375e-07 0.135245)
(-1.08831e-06 -4.64395e-07 0.138725)
(-3.94462e-07 -6.42159e-07 0.140518)
(3.87624e-07 -6.42678e-07 0.140518)
(1.08171e-06 -4.65946e-07 0.138725)
(1.65036e-06 -1.57843e-07 0.135245)
(1.54341e-06 4.37645e-08 0.130287)
(7.18958e-07 -2.89527e-07 0.124135)
(3.03315e-05 3.65903e-05 0.35977)
(2.47117e-05 4.67027e-05 0.37657)
(1.83575e-05 5.4642e-05 0.39009)
(1.16778e-05 6.03097e-05 0.399564)
(3.98581e-06 6.33523e-05 0.404442)
(-4.00616e-06 6.33508e-05 0.404442)
(-1.16975e-05 6.03054e-05 0.399564)
(-1.83765e-05 5.46354e-05 0.39009)
(-2.47294e-05 4.66932e-05 0.376569)
(-3.03458e-05 3.65793e-05 0.35977)
(0.000106662 0.000125356 0.579284)
(9.21124e-05 0.00015754 0.605014)
(7.13699e-05 0.000185167 0.625652)
(4.5804e-05 0.000205719 0.640086)
(1.57704e-05 0.000216839 0.647509)
(-1.58043e-05 0.000216837 0.647509)
(-4.58368e-05 0.000205713 0.640086)
(-7.14014e-05 0.000185156 0.625652)
(-9.21422e-05 0.000157526 0.605014)
(-0.000106687 0.00012534 0.579284)
(0.000227963 0.000265435 0.782177)
(0.00019992 0.000330169 0.815093)
(0.000156549 0.000387208 0.841371)
(0.000100671 0.000430009 0.859703)
(3.47277e-05 0.000453192 0.869117)
(-3.47751e-05 0.000453189 0.869117)
(-0.000100717 0.000430001 0.859703)
(-0.000156593 0.000387194 0.84137)
(-0.000199962 0.000330151 0.815093)
(-0.000227998 0.000265415 0.782177)
(0.000383965 0.000444464 0.968039)
(0.000338084 0.000547024 1.0064)
(0.000265412 0.000638148 1.03683)
(0.000170588 0.000706549 1.058)
(5.88488e-05 0.000743541 1.06886)
(-5.89092e-05 0.000743538 1.06886)
(-0.000170647 0.00070654 1.058)
(-0.000265469 0.000638133 1.03683)
(-0.000338136 0.000547004 1.0064)
(-0.00038401 0.000444441 0.968039)
(0.000559099 0.000643956 1.13658)
(0.000491733 0.000783016 1.17866)
(0.000385573 0.00090652 1.21181)
(0.000247301 0.000998888 1.2348)
(8.52328e-05 0.00104868 1.24657)
(-8.53056e-05 0.00104868 1.24657)
(-0.000247372 0.000998878 1.2348)
(-0.000385641 0.000906505 1.21181)
(-0.000491796 0.000782995 1.17865)
(-0.000559154 0.000643932 1.13658)
(0.0007347 0.000841929 1.2876)
(0.000643436 0.00100933 1.33176)
(0.000502752 0.00115709 1.3663)
(0.000321397 0.00126689 1.39017)
(0.000110589 0.00132581 1.40235)
(-0.000110674 0.00132581 1.40235)
(-0.000321479 0.00126688 1.39017)
(-0.000502831 0.00115707 1.3663)
(-0.000643509 0.00100931 1.33176)
(-0.000734765 0.000841906 1.2876)
(0.000891502 0.00101558 1.42098)
(0.000775758 0.00119732 1.46575)
(0.000602952 0.00135595 1.50051)
(0.000383753 0.0014727 1.52441)
(0.000131745 0.00153495 1.53658)
(-0.00013184 0.00153494 1.53657)
(-0.000383845 0.00147269 1.52441)
(-0.000603041 0.00135593 1.5005)
(-0.00077584 0.0011973 1.46575)
(-0.000891576 0.00101556 1.42098)
(0.00101372 0.00114557 1.5365)
(0.000874515 0.00132428 1.58082)
(0.000674656 0.00147622 1.61489)
(0.000426807 0.00158649 1.63814)
(0.000146068 0.00164475 1.6499)
(-0.000146171 0.00164474 1.6499)
(-0.000426908 0.00158649 1.63814)
(-0.000674752 0.00147621 1.61489)
(-0.000874605 0.00132427 1.58082)
(-0.0010138 0.00114555 1.5365)
(0.00109117 0.00123316 1.63376)
(0.000928332 0.00137663 1.67776)
(0.000707748 0.00149862 1.71034)
(0.000444054 0.00158533 1.73226)
(0.000151331 0.00163054 1.74327)
(-0.000151441 0.00163054 1.74327)
(-0.000444162 0.00158533 1.73226)
(-0.000707851 0.00149862 1.71034)
(-0.000928429 0.00137662 1.67776)
(-0.00109126 0.00123315 1.63376)
(4.36471e-08 7.23608e-07 0.124116)
(-7.06956e-07 1.06758e-06 0.130267)
(-9.03028e-07 9.29382e-07 0.135222)
(-6.67235e-07 6.77527e-07 0.138699)
(-2.50275e-07 5.13645e-07 0.140492)
(2.45572e-07 5.13284e-07 0.140492)
(6.6269e-07 6.76462e-07 0.138699)
(8.9877e-07 9.27666e-07 0.135222)
(7.03098e-07 1.0653e-06 0.130267)
(-4.67895e-08 7.21023e-07 0.124116)
(8.80465e-06 1.17544e-05 0.359672)
(6.04106e-06 1.51791e-05 0.376462)
(3.89506e-06 1.72885e-05 0.389973)
(2.27491e-06 1.85727e-05 0.39944)
(7.37563e-07 1.9208e-05 0.404314)
(-7.51563e-07 1.9207e-05 0.404314)
(-2.28848e-06 1.85698e-05 0.39944)
(-3.90782e-06 1.72839e-05 0.389973)