/*--------------------------------*- C++ -*----------------------------------*\
| =========                 |                                                 |
| \\      /  F ield         | OpenFOAM: The Open Source CFD Toolbox           |
|  \\    /   O peration     | Version:  2106                                  |
|   \\  /    A nd           | Website:  www.openfoam.com                      |
|    \\/     M anipulation  |                                                 |
\*---------------------------------------------------------------------------*/
FoamFile
{
    version     2.0;
    format      ascii;
    arch        "LSB;label=32;scalar=64";
    class       volVectorField;
    location    "0.54";
    object      U;
}
// * * * * * * * * * * * * * * * * * * * * * * * * * * * * * * * * * * * * * //

dimensions      [0 1 -1 0 0 0 0];

internalField   nonuniform List<vector> 
10000
(
(0.0625629 0.0737204 0.345092)
(0.0533586 0.0838406 0.359571)
(0.0398491 0.0929919 0.370935)
(0.0247209 0.0993743 0.378783)
(0.00837779 0.102674 0.382772)
(-0.0083778 0.102674 0.382772)
(-0.0247209 0.0993743 0.378783)
(-0.0398491 0.0929919 0.370935)
(-0.0533586 0.0838406 0.359571)
(-0.0625629 0.0737204 0.345092)
(0.17206 0.20413 0.727825)
(0.145241 0.231373 0.747474)
(0.108431 0.255333 0.762113)
(0.0670865 0.27192 0.77201)
(0.0227086 0.280474 0.776959)
(-0.0227086 0.280474 0.776959)
(-0.0670865 0.27192 0.77201)
(-0.108431 0.255333 0.762113)
(-0.145241 0.231373 0.747474)
(-0.17206 0.20413 0.727825)
(0.22263 0.264353 0.923736)
(0.185824 0.296061 0.939563)
(0.137843 0.323748 0.950627)
(0.084862 0.34269 0.95793)
(0.0286549 0.352396 0.961512)
(-0.028655 0.352396 0.961512)
(-0.084862 0.34269 0.95793)
(-0.137843 0.323748 0.950627)
(-0.185824 0.296061 0.939563)
(-0.22263 0.264353 0.923736)
(0.237643 0.281726 1.02285)
(0.19641 0.311601 1.03336)
(0.144796 0.337741 1.04003)
(0.0887293 0.355422 1.04429)
(0.0298929 0.364424 1.04632)
(-0.029893 0.364424 1.04632)
(-0.0887294 0.355422 1.04429)
(-0.144796 0.337741 1.04003)
(-0.19641 0.311601 1.03336)
(-0.237643 0.281726 1.02285)
(0.235694 0.278919 1.07121)
(0.193199 0.304911 1.07716)
(0.141678 0.327791 1.08029)
(0.0864703 0.343133 1.08217)
(0.0290756 0.350896 1.08301)
(-0.0290757 0.350896 1.08301)
(-0.0864704 0.343133 1.08217)
(-0.141678 0.32779 1.08029)
(-0.193199 0.304911 1.07716)
(-0.235694 0.278919 1.07121)
(0.224674 0.265394 1.09229)
(0.182771 0.28679 1.09487)
(0.133395 0.305775 1.09552)
(0.081114 0.318433 1.09576)
(0.0272265 0.3248 1.09581)
(-0.0272267 0.3248 1.09581)
(-0.0811141 0.318433 1.09576)
(-0.133395 0.305775 1.09552)
(-0.182771 0.28679 1.09487)
(-0.224674 0.265394 1.09229)
(0.208324 0.245453 1.0989)
(0.168185 0.262015 1.09917)
(0.122198 0.276856 1.09826)
(0.0740448 0.286732 1.09749)
(0.0248119 0.291678 1.09706)
(-0.0248121 0.291678 1.09706)
(-0.074045 0.286732 1.09749)
(-0.122198 0.276856 1.09826)
(-0.168185 0.262015 1.09917)
(-0.208324 0.245453 1.0989)
(0.188976 0.221824 1.0982)
(0.151389 0.233595 1.09702)
(0.109529 0.244282 1.09522)
(0.0661517 0.251428 1.09391)
(0.0221319 0.255007 1.09322)
(-0.0221321 0.255007 1.09322)
(-0.0661519 0.251428 1.09391)
(-0.10953 0.244282 1.09522)
(-0.151389 0.233595 1.09702)
(-0.188976 0.221824 1.0982)
(0.168165 0.196295 1.09421)
(0.133754 0.203465 1.09215)
(0.0963779 0.210125 1.08993)
(0.0580264 0.214709 1.08838)
(0.0193838 0.217024 1.08759)
(-0.0193841 0.217024 1.08759)
(-0.0580266 0.214709 1.08838)
(-0.0963781 0.210125 1.08993)
(-0.133754 0.203465 1.09215)
(-0.168166 0.196295 1.09421)
(0.147054 0.170518 1.08916)
(0.116483 0.171602 1.08663)
(0.0833518 0.174867 1.08427)
(0.0499985 0.177247 1.08268)
(0.0166725 0.17847 1.08188)
(-0.0166727 0.17847 1.08188)
(-0.0499988 0.177247 1.08268)
(-0.083352 0.174867 1.08427)
(-0.116483 0.171602 1.08663)
(-0.147055 0.170518 1.08916)
(0.0111945 0.0142997 0.266527)
(0.0094049 0.0175902 0.27879)
(0.0071015 0.0202335 0.288831)
(0.00449543 0.0220456 0.295821)
(0.0015381 0.0229897 0.299399)
(-0.00153813 0.0229897 0.299399)
(-0.00449545 0.0220456 0.295821)
(-0.00710152 0.0202334 0.288831)
(-0.00940492 0.0175902 0.27879)
(-0.0111945 0.0142997 0.266527)
(0.0544063 0.0658296 0.629545)
(0.0467179 0.0792013 0.651492)
(0.0357543 0.0906591 0.669093)
(0.0226039 0.0987776 0.681198)
(0.0077352 0.103039 0.687342)
(-0.00773528 0.103039 0.687342)
(-0.0226039 0.0987776 0.681198)
(-0.0357543 0.0906591 0.669093)
(-0.046718 0.0792013 0.651492)
(-0.0544063 0.0658295 0.629545)
(0.097756 0.116764 0.876539)
(0.0834022 0.138094 0.900365)
(0.0634933 0.1564 0.919054)
(0.0399 0.169318 0.931751)
(0.0136136 0.176065 0.938145)
(-0.0136137 0.176065 0.938145)
(-0.0399002 0.169318 0.931751)
(-0.0634934 0.156399 0.919053)
(-0.0834023 0.138094 0.900365)
(-0.0977561 0.116764 0.876539)
(0.133813 0.158657 1.04433)
(0.113195 0.184775 1.06633)
(0.0856202 0.207081 1.08317)
(0.0534998 0.222712 1.09447)
(0.0182019 0.230829 1.10011)
(-0.018202 0.230829 1.10011)
(-0.0535 0.222712 1.09447)
(-0.0856204 0.207081 1.08317)
(-0.113195 0.184775 1.06633)
(-0.133813 0.158657 1.04433)
(0.159618 0.188177 1.15739)
(0.133869 0.216025 1.176)
(0.100622 0.239649 1.18987)
(0.0625501 0.256083 1.19906)
(0.0212263 0.26457 1.20361)
(-0.0212265 0.26457 1.20361)
(-0.0625503 0.256083 1.19906)
(-0.100623 0.239649 1.18987)
(-0.133869 0.216024 1.176)
(-0.159619 0.188177 1.15739)
(0.175218 0.205502 1.23243)
(0.145708 0.232592 1.24725)
(0.108862 0.255375 1.25796)
(0.0673483 0.271116 1.26495)
(0.0228001 0.279203 1.26838)
(-0.0228004 0.279203 1.26838)
(-0.0673486 0.271116 1.26495)
(-0.108862 0.255375 1.25796)
(-0.145709 0.232592 1.24725)
(-0.175218 0.205502 1.23243)
(0.181675 0.211977 1.28128)
(0.149787 0.236413 1.29249)
(0.111252 0.256721 1.30033)
(0.0685167 0.270668 1.30536)
(0.0231436 0.2778 1.3078)
(-0.0231439 0.2778 1.3078)
(-0.068517 0.270668 1.30536)
(-0.111253 0.256721 1.30033)
(-0.149787 0.236413 1.29249)
(-0.181675 0.211977 1.28128)
(0.180333 0.209238 1.31227)
(0.147393 0.229642 1.32039)
(0.108853 0.246324 1.32584)
(0.066753 0.257727 1.32927)
(0.0224999 0.263539 1.33091)
(-0.0225003 0.263539 1.33091)
(-0.0667534 0.257727 1.32927)
(-0.108853 0.246324 1.32584)
(-0.147393 0.229642 1.32039)
(-0.180334 0.209238 1.31227)
(0.172654 0.198962 1.33126)
(0.139946 0.214405 1.33688)
(0.102768 0.226674 1.34048)
(0.0627523 0.235077 1.34268)
(0.0211065 0.239356 1.34371)
(-0.0211069 0.239356 1.34371)
(-0.0627527 0.235077 1.34268)
(-0.102769 0.226674 1.34048)
(-0.139947 0.214405 1.33688)
(-0.172654 0.198962 1.33126)
(0.160206 0.183956 1.34235)
(0.128995 0.191854 1.34612)
(0.093951 0.199366 1.34836)
(0.0570796 0.204546 1.34964)
(0.0191514 0.207182 1.35023)
(-0.0191519 0.207182 1.35023)
(-0.0570801 0.204546 1.34964)
(-0.0939514 0.199366 1.34836)
(-0.128996 0.191854 1.34612)
(-0.160206 0.183956 1.34235)
(0.00112086 0.00125169 0.157676)
(0.00113211 0.00159848 0.165978)
(0.000882512 0.00200638 0.17291)
(0.000590719 0.00230851 0.177816)
(0.000205835 0.00247592 0.180356)
(-0.000205862 0.00247592 0.180356)
(-0.000590745 0.0023085 0.177816)
(-0.000882537 0.00200637 0.17291)
(-0.00113214 0.00159847 0.165978)
(-0.00112087 0.00125168 0.157676)
(0.0180021 0.0208894 0.441758)
(0.0161894 0.0254848 0.461966)
(0.0126704 0.0298094 0.478562)
(0.00813755 0.0330035 0.49021)
(0.002804 0.0347193 0.496205)
(-0.00280409 0.0347193 0.496205)
(-0.00813763 0.0330035 0.49021)
(-0.0126705 0.0298094 0.478562)
(-0.0161895 0.0254848 0.461966)
(-0.0180022 0.0208894 0.441758)
(0.0410284 0.0477569 0.685406)
(0.0362359 0.0573749 0.712991)
(0.0281508 0.0661478 0.735282)
(0.0179321 0.0725625 0.750798)
(0.00615681 0.0759786 0.758744)
(-0.00615696 0.0759785 0.758744)
(-0.0179322 0.0725625 0.750798)
(-0.028151 0.0661478 0.735282)
(-0.036236 0.0573748 0.712991)
(-0.0410285 0.0477569 0.685405)
(0.0658636 0.0767263 0.888073)
(0.0574072 0.0908851 0.919258)
(0.0442688 0.103553 0.944039)
(0.0280186 0.112718 0.961142)
(0.00959077 0.117563 0.969857)
(-0.00959098 0.117563 0.969857)
(-0.0280188 0.112718 0.961142)
(-0.044269 0.103553 0.944039)
(-0.0574074 0.090885 0.919258)
(-0.0658637 0.0767263 0.888073)
(0.0880395 0.102443 1.05318)
(0.0758644 0.119674 1.08518)
(0.0580864 0.134863 1.11017)
(0.0365573 0.145746 1.12727)
(0.0124795 0.151462 1.13594)
(-0.0124798 0.151462 1.13594)
(-0.0365575 0.145746 1.12727)
(-0.0580866 0.134863 1.11017)
(-0.0758646 0.119674 1.08517)
(-0.0880397 0.102443 1.05318)
(0.105318 0.122233 1.18561)
(0.089801 0.140786 1.21653)
(0.0682861 0.156916 1.24027)
(0.0427526 0.168371 1.25638)
(0.0145573 0.174352 1.2645)
(-0.0145577 0.174352 1.2645)
(-0.042753 0.168371 1.25638)
(-0.0682864 0.156916 1.24027)
(-0.0898012 0.140786 1.21653)
(-0.105318 0.122233 1.18561)
(0.116854 0.135133 1.29051)
(0.0986243 0.153324 1.31919)
(0.0744918 0.168904 1.34085)
(0.0464054 0.179879 1.35544)
(0.0157625 0.185578 1.36276)
(-0.0157629 0.185578 1.36276)
(-0.0464058 0.179879 1.35544)
(-0.0744922 0.168904 1.34085)
(-0.0986247 0.153324 1.31919)
(-0.116854 0.135133 1.29051)
(0.122526 0.141039 1.37265)
(0.102371 0.157395 1.3985)
(0.0768084 0.171156 1.41773)
(0.0476158 0.180777 1.43057)
(0.0161346 0.185749 1.43699)
(-0.0161351 0.185749 1.43699)
(-0.0476163 0.180777 1.43057)
(-0.0768089 0.171155 1.41773)
(-0.102371 0.157395 1.3985)
(-0.122526 0.141038 1.37265)
(0.122738 0.140391 1.43613)
(0.101537 0.153737 1.45904)
(0.0756538 0.164639 1.47582)
(0.0466588 0.172229 1.48692)
(0.0157699 0.176135 1.49242)
(-0.0157704 0.176135 1.49242)
(-0.0466593 0.172229 1.48692)
(-0.0756543 0.164639 1.47582)
(-0.101537 0.153737 1.45904)
(-0.122738 0.140391 1.43613)
(0.11831 0.135002 1.48433)
(0.0969192 0.143016 1.50479)
(0.0715023 0.150265 1.51922)
(0.0438249 0.155286 1.52862)
(0.014767 0.157856 1.53325)
(-0.0147675 0.157856 1.53325)
(-0.0438255 0.155286 1.52862)
(-0.0715028 0.150265 1.51921)
(-0.0969197 0.143016 1.50479)
(-0.11831 0.135002 1.48433)
(0.000712169 0.000935463 0.137977)
(0.000556548 0.00117297 0.144788)
(0.000381073 0.00134135 0.150334)
(0.000236277 0.00144099 0.154227)
(7.91088e-05 0.00149084 0.156235)
(-7.91337e-05 0.00149084 0.156235)
(-0.000236301 0.00144098 0.154227)
(-0.000381096 0.00134134 0.150334)
(-0.00055657 0.00117295 0.144788)
(-0.000712187 0.000935448 0.137977)
(0.00702428 0.00839957 0.395643)
(0.00609928 0.0103533 0.413719)
(0.00469004 0.0120437 0.428352)
(0.00299212 0.0132572 0.438594)
(0.00102756 0.0139028 0.443864)
(-0.00102765 0.0139027 0.443864)
(-0.00299219 0.0132572 0.438594)
(-0.00469011 0.0120437 0.428352)
(-0.00609934 0.0103532 0.413719)
(-0.00702433 0.00839953 0.395643)
(0.0172229 0.0203368 0.628897)
(0.0150238 0.024761 0.655579)
(0.0116268 0.0286436 0.677012)
(0.00740705 0.0314623 0.69195)
(0.00254366 0.0329616 0.699616)
(-0.0025438 0.0329616 0.699616)
(-0.00740718 0.0314623 0.69195)
(-0.011627 0.0286436 0.677012)
(-0.0150239 0.024761 0.655579)
(-0.017223 0.0203368 0.628897)
(0.0295432 0.034687 0.835807)
(0.0256868 0.0417273 0.868404)
(0.019853 0.0479051 0.894342)
(0.0126075 0.0523853 0.912329)
(0.00432347 0.0547613 0.921533)
(-0.00432367 0.0547612 0.921533)
(-0.0126077 0.0523853 0.912329)
(-0.0198532 0.047905 0.894342)
(-0.025687 0.0417272 0.868404)
(-0.0295433 0.034687 0.835807)
(0.0419384 0.0490206 1.01631)
(0.0362388 0.058225 1.0524)
(0.0278958 0.0662557 1.0808)
(0.0176448 0.0720508 1.1004)
(0.0060394 0.0751108 1.11039)
(-0.00603966 0.0751108 1.11039)
(-0.0176451 0.0720507 1.1004)
(-0.0278961 0.0662557 1.0808)
(-0.036239 0.0582249 1.0524)
(-0.0419386 0.0490205 1.01631)
(0.0529219 0.0615853 1.17157)
(0.0453822 0.0721562 1.2091)
(0.0347497 0.081293 1.23832)
(0.0218838 0.0878425 1.25836)
(0.00747421 0.0912842 1.26855)
(-0.00747453 0.0912842 1.26855)
(-0.0218841 0.0878425 1.25836)
(-0.03475 0.081293 1.23832)
(-0.0453824 0.0721561 1.2091)
(-0.0529222 0.0615852 1.17157)
(0.0615128 0.0712464 1.30337)
(0.0522987 0.0822325 1.34074)
(0.0398058 0.0916076 1.3695)
(0.0249516 0.0982778 1.38912)
(0.0085024 0.101765 1.39906)
(-0.00850279 0.101765 1.39906)
(-0.024952 0.0982778 1.38912)
(-0.0398061 0.0916075 1.3695)
(-0.052299 0.0822324 1.34074)
(-0.0615131 0.0712463 1.30337)
(0.0671241 0.0773272 1.41376)
(0.0565452 0.0877582 1.44978)
(0.0427611 0.0965137 1.47721)
(0.0266742 0.102692 1.49582)
(0.00906733 0.105906 1.5052)
(-0.00906777 0.105906 1.5052)
(-0.0266747 0.102692 1.49582)
(-0.0427615 0.0965136 1.47721)
(-0.0565456 0.0877582 1.44978)
(-0.0671244 0.0773271 1.41376)
(0.0695638 0.0795688 1.50473)
(0.0580415 0.08857 1.53873)
(0.0435807 0.0959133 1.56431)
(0.0270388 0.101058 1.58152)
(0.0091662 0.10372 1.59014)
(-0.00916669 0.10372 1.59014)
(-0.0270392 0.101058 1.58152)
(-0.0435811 0.0959132 1.56431)
(-0.0580419 0.08857 1.53873)
(-0.0695641 0.0795688 1.50473)
(0.0690153 0.0787584 1.57798)
(0.0569806 0.0847347 1.61023)
(0.0423491 0.0899294 1.6336)
(0.0261 0.0935349 1.64909)
(0.00881866 0.0953854 1.6568)
(-0.00881917 0.0953854 1.6568)
(-0.0261005 0.0935349 1.64909)
(-0.0423496 0.0899294 1.6336)
(-0.056981 0.0847347 1.61023)
(-0.0690157 0.0787584 1.57798)
(0.000129434 0.000141459 0.12709)
(0.000119961 0.000185503 0.133438)
(8.86133e-05 0.000230691 0.138598)
(6.06113e-05 0.000262361 0.142226)
(2.0928e-05 0.000280312 0.144098)
(-2.09487e-05 0.00028031 0.144098)
(-6.06315e-05 0.000262356 0.142226)
(-8.86325e-05 0.000230683 0.138598)
(-0.000119979 0.000185492 0.133438)
(-0.000129449 0.000141447 0.12709)
(0.00249631 0.00288741 0.368552)
(0.00223285 0.0035797 0.385816)
(0.00174886 0.00421744 0.399801)
(0.00113026 0.00469192 0.409614)
(0.000390254 0.00494946 0.414671)
(-0.000390323 0.00494946 0.414671)
(-0.00113033 0.00469191 0.409614)
(-0.00174892 0.00421742 0.399801)
(-0.00223291 0.00357967 0.385816)
(-0.00249636 0.00288738 0.368552)
(0.00679989 0.0078886 0.592384)
(0.00604124 0.00967068 0.618583)
(0.00473507 0.0112892 0.639692)
(0.00304281 0.0124932 0.654462)
(0.00104905 0.0131422 0.66206)
(-0.00104917 0.0131421 0.66206)
(-0.00304293 0.0124932 0.654462)
(-0.00473518 0.0112891 0.639692)
(-0.00604134 0.00967064 0.618583)
(-0.00679998 0.00788854 0.592384)
(0.0124783 0.0144788 0.797061)
(0.0110134 0.0175558 0.830122)
(0.00860706 0.0203242 0.856576)
(0.00550745 0.0223733 0.875022)
(0.00189548 0.0234721 0.88449)
(-0.00189565 0.0234721 0.88449)
(-0.00550762 0.0223733 0.875022)
(-0.00860721 0.0203242 0.856576)
(-0.0110135 0.0175557 0.830121)
(-0.0124784 0.0144787 0.79706)
(0.0186601 0.0216169 0.981826)
(0.0163501 0.0259021 1.01972)
(0.0127205 0.0297219 1.0498)
(0.00810524 0.0325302 1.07069)
(0.00278412 0.0340288 1.08139)
(-0.00278435 0.0340287 1.08139)
(-0.00810546 0.0325302 1.07069)
(-0.0127207 0.0297218 1.0498)
(-0.0163503 0.0259021 1.01972)
(-0.0186603 0.0216169 0.981826)
(0.0245798 0.0283943 1.14655)
(0.0213657 0.0335811 1.1874)
(0.0165326 0.0381548 1.21953)
(0.0104875 0.0414923 1.24176)
(0.00359473 0.043264 1.25311)
(-0.00359501 0.043264 1.25311)
(-0.0104878 0.0414922 1.24176)
(-0.0165328 0.0381547 1.21953)
(-0.0213659 0.033581 1.1874)
(-0.02458 0.0283942 1.14655)
(0.0296258 0.0340948 1.29153)
(0.0255283 0.0397344 1.33366)
(0.0196329 0.0446428 1.3665)
(0.0123956 0.0481954 1.38911)
(0.00423891 0.0500712 1.40062)
(-0.00423924 0.0500712 1.40062)
(-0.0123959 0.0481954 1.38911)
(-0.0196332 0.0446428 1.3665)
(-0.0255286 0.0397344 1.33366)
(-0.029626 0.0340947 1.29153)
(0.0333487 0.0381917 1.41733)
(0.0284682 0.0437674 1.45934)
(0.0217477 0.0485419 1.49179)
(0.0136616 0.0519659 1.51402)
(0.00466 0.0537633 1.52529)
(-0.00466038 0.0537633 1.52529)
(-0.013662 0.0519659 1.51402)
(-0.0217481 0.0485419 1.49179)
(-0.0284685 0.0437674 1.45934)
(-0.033349 0.0381917 1.41733)
(0.0355071 0.0403832 1.52453)
(0.0300078 0.0453873 1.56548)
(0.0227477 0.0495511 1.59676)
(0.0142063 0.0525075 1.618)
(0.00483141 0.0540484 1.62872)
(-0.00483183 0.0540484 1.62872)
(-0.0142067 0.0525075 1.618)
(-0.0227481 0.049551 1.59676)
(-0.0300081 0.0453873 1.56548)
(-0.0355074 0.0403831 1.52453)
(0.0360747 0.0409748 1.61356)
(0.0301156 0.0445082 1.6536)
(0.0225754 0.0475655 1.68303)
(0.0139947 0.0497053 1.70273)
(0.00474188 0.0508096 1.7126)
(-0.00474232 0.0508096 1.7126)
(-0.0139951 0.0497053 1.70273)
(-0.0225758 0.0475655 1.68303)
(-0.0301159 0.0445082 1.6536)
(-0.036075 0.0409748 1.61355)
(7.88697e-05 0.000106543 0.124159)
(5.51222e-05 0.000135175 0.13031)
(3.37114e-05 0.000151721 0.135278)
(2.05766e-05 0.000159865 0.138766)
(6.67332e-06 0.000163749 0.140564)
(-6.68962e-06 0.000163748 0.140564)
(-2.05928e-05 0.000159862 0.138766)
(-3.37265e-05 0.000151715 0.135278)
(-5.51367e-05 0.000135166 0.13031)
(-7.88823e-05 0.000106533 0.124159)
(0.00102745 0.00122736 0.360154)
(0.000882229 0.00152241 0.376977)
(0.000674475 0.0017706 0.390546)
(0.000430624 0.00194868 0.400058)
(0.000147785 0.00204388 0.404957)
(-0.000147839 0.00204388 0.404957)
(-0.000430677 0.00194867 0.400058)
(-0.000674525 0.00177058 0.390546)
(-0.000882275 0.00152238 0.376977)
(-0.00102749 0.00122733 0.360154)
(0.00283161 0.00333361 0.580115)
(0.0024724 0.00410051 0.605887)
(0.00191927 0.00476948 0.626601)
(0.00122781 0.0052604 0.641092)
(0.000422426 0.00552368 0.648547)
(-0.000422521 0.00552368 0.648547)
(-0.0012279 0.00526038 0.641092)
(-0.00191936 0.00476945 0.626601)
(-0.00247248 0.00410047 0.605887)
(-0.00283168 0.00333356 0.580115)
(0.00530725 0.00620927 0.783289)
(0.00464721 0.0075697 0.816239)
(0.0036188 0.00876849 0.842586)
(0.00231302 0.00965176 0.860973)
(0.000795753 0.010125 0.870417)
(-0.000795891 0.010125 0.870417)
(-0.00231316 0.00965174 0.860972)
(-0.00361893 0.00876846 0.842586)
(-0.00464732 0.00756966 0.816239)
(-0.00530736 0.00620922 0.783288)
(0.00813225 0.00947031 0.969158)
(0.00710491 0.011426 1.00752)
(0.00552578 0.0131497 1.03799)
(0.00352361 0.0144172 1.0592)
(0.00121098 0.0150943 1.07007)
(-0.00121117 0.0150943 1.07007)
(-0.00352379 0.0144171 1.0592)
(-0.00552595 0.0131497 1.03799)
(-0.00710507 0.0114259 1.00752)
(-0.00813238 0.00947026 0.969158)
(0.0109786 0.0127284 1.13744)
(0.00954423 0.0151726 1.17949)
(0.00739698 0.0173153 1.21266)
(0.00470122 0.0188829 1.23566)
(0.00161312 0.0197172 1.24743)
(-0.00161335 0.0197172 1.24743)
(-0.00470144 0.0188829 1.23566)
(-0.00739718 0.0173153 1.21266)
(-0.00954442 0.0151726 1.17949)
(-0.0109788 0.0127284 1.13744)
(0.0135439 0.0156289 1.28804)
(0.0116945 0.01837 1.33216)
(0.00901867 0.0207496 1.3667)
(0.00570878 0.0224787 1.39057)
(0.00195492 0.0233945 1.40275)
(-0.00195518 0.0233945 1.40275)
(-0.00570904 0.0224787 1.39057)
(-0.00901891 0.0207495 1.3667)
(-0.0116947 0.01837 1.33216)
(-0.0135441 0.0156289 1.28803)
(0.0155733 0.0178716 1.42094)
(0.0133376 0.0206636 1.46571)
(0.0102242 0.0230538 1.50049)
(0.00644157 0.0247756 1.52441)
(0.0022006 0.0256824 1.53658)
(-0.0022009 0.0256824 1.53658)
(-0.00644187 0.0247756 1.52441)
(-0.0102245 0.0230538 1.50049)
(-0.0133379 0.0206635 1.46571)
(-0.0155735 0.0178716 1.42094)
(0.016899 0.019247 1.5361)
(0.0143387 0.0218292 1.58048)
(0.0109106 0.0239815 1.6146)
(0.00683455 0.0255157 1.63788)
(0.00232797 0.0263176 1.64966)
(-0.00232831 0.0263176 1.64966)
(-0.00683487 0.0255157 1.63788)
(-0.0109109 0.0239815 1.6146)
(-0.0143389 0.0218292 1.58048)
(-0.0168993 0.019247 1.53609)
(0.0174586 0.0198535 1.63323)
(0.0146322 0.0217582 1.67734)
(0.0110112 0.0233917 1.70997)
(0.00684622 0.0245384 1.73192)
(0.00232318 0.0251314 1.74294)
(-0.00232353 0.0251314 1.74294)
(-0.00684656 0.0245384 1.73192)
(-0.0110115 0.0233917 1.70997)
(-0.0146325 0.0217582 1.67733)
(-0.0174589 0.0198535 1.63323)
(1.1753e-05 1.44599e-05 0.122685)
(7.93014e-06 1.98346e-05 0.12877)
(4.37483e-06 2.33529e-05 0.133682)
(3.23398e-06 2.5358e-05 0.13713)
(1.08007e-06 2.65216e-05 0.138909)
(-1.09242e-06 2.65206e-05 0.138909)
(-3.24607e-06 2.53552e-05 0.13713)
(-4.38646e-06 2.33484e-05 0.133682)
(-7.94127e-06 1.98281e-05 0.12877)
(-1.17626e-05 1.44519e-05 0.122685)
(0.000353064 0.000412582 0.355988)
(0.000308128 0.000515135 0.372644)
(0.000238586 0.000604589 0.386072)
(0.00015399 0.000670671 0.395487)
(5.30952e-05 0.000706574 0.400337)
(-5.31364e-05 0.000706572 0.400337)
(-0.00015403 0.000670663 0.395487)
(-0.000238625 0.000604576 0.386071)
(-0.000308164 0.000515117 0.372644)
(-0.000353095 0.000412561 0.355988)
(0.00105603 0.00122882 0.573889)
(0.000931275 0.00152009 0.599478)
(0.00072888 0.00177917 0.620042)
(0.000469189 0.00197266 0.634436)
(0.000161884 0.0020774 0.641843)
(-0.000161957 0.00207739 0.641843)
(-0.00046926 0.00197265 0.634436)
(-0.000728947 0.00177915 0.620042)
(-0.000931337 0.00152006 0.599478)
(-0.00105608 0.00122878 0.573889)
(0.00207196 0.00240465 0.775956)
(0.00182925 0.00294837 0.808828)
(0.00143434 0.00343428 0.835125)
(0.000921425 0.00379726 0.853492)
(0.000317763 0.00399319 0.862932)
(-0.000317868 0.00399318 0.862931)
(-0.000921528 0.00379725 0.853492)
(-0.00143444 0.00343426 0.835124)
(-0.00182934 0.00294834 0.808828)
(-0.00207204 0.00240461 0.775956)
(0.00328204 0.0037976 0.961841)
(0.00289002 0.00460959 1.00035)
(0.00226266 0.0053341 1.03098)
(0.00144974 0.00587346 1.05232)
(0.0004994 0.00616362 1.06327)
(-0.000499539 0.00616361 1.06327)
(-0.00144987 0.00587344 1.05232)
(-0.00226279 0.00533407 1.03098)
(-0.00289014 0.00460956 1.00035)
(-0.00328214 0.00379756 0.961841)
(0.00455146 0.00524757 1.13128)
(0.00398834 0.006295 1.17381)
(0.00311172 0.00722411 1.20741)
(0.00198714 0.00791199 1.23076)
(0.000683442 0.00828052 1.24272)
(-0.000683614 0.00828051 1.24272)
(-0.00198731 0.00791197 1.23076)
(-0.00311188 0.00722409 1.20741)
(-0.00398848 0.00629497 1.17381)
(-0.00455159 0.00524752 1.13128)
(0.0057444 0.00659483 1.28408)
(0.00500062 0.00780227 1.32906)
(0.00388255 0.00886308 1.36436)
(0.00246946 0.00964282 1.38881)
(0.000847633 0.0100585 1.40131)
(-0.000847837 0.0100585 1.40131)
(-0.00246965 0.00964281 1.38881)
(-0.00388274 0.00886306 1.36436)
(-0.00500079 0.00780224 1.32906)
(-0.00574455 0.00659479 1.28408)
(0.00673704 0.00769326 1.42002)
(0.00581828 0.00895414 1.46604)
(0.00449023 0.010047 1.5019)
(0.0028424 0.0108427 1.52663)
(0.000973278 0.0112643 1.53923)
(-0.000973511 0.0112643 1.53923)
(-0.00284262 0.0108427 1.52663)
(-0.00449044 0.0100469 1.5019)
(-0.00581848 0.00895412 1.46604)
(-0.00673721 0.00769323 1.42002)
(0.0074399 0.00843259 1.53877)
(0.00636497 0.00962735 1.58478)
(0.00487455 0.0106349 1.62027)
(0.00306717 0.0113595 1.64455)
(0.001047 0.0117403 1.65686)
(-0.00104726 0.0117403 1.65686)
(-0.00306742 0.0113595 1.64455)
(-0.00487478 0.0106349 1.62027)
(-0.00636518 0.00962733 1.58478)
(-0.00744009 0.00843257 1.53877)
(0.00780789 0.00884477 1.63973)
(0.00659107 0.0097569 1.68583)
(0.00498916 0.0105378 1.72006)
(0.00311443 0.0110892 1.74315)
(0.00105887 0.0113755 1.75476)
(-0.00105914 0.0113755 1.75476)
(-0.00311469 0.0110892 1.74314)
(-0.00498941 0.0105378 1.72006)
(-0.0065913 0.0097569 1.68583)
(-0.00780809 0.00884477 1.63973)
(7.4715e-06 1.19809e-05 0.122304)
(2.99303e-06 1.56438e-05 0.128363)
(4.73086e-07 1.66975e-05 0.133248)
(3.79311e-08 1.6683e-05 0.136678)
(-7.13346e-08 1.65696e-05 0.138446)
(6.22961e-08 1.65689e-05 0.138446)
(-4.67575e-08 1.66809e-05 0.136678)
(-4.81528e-07 1.66942e-05 0.133248)
(-3.00125e-06 1.56391e-05 0.128363)
(-7.47839e-06 1.19751e-05 0.122304)
(0.000133926 0.000162982 0.354736)
(0.000110745 0.000203854 0.371316)
(8.28487e-05 0.000235922 0.384671)
(5.25071e-05 0.000258447 0.394034)
(1.79397e-05 0.000270413 0.398856)
(-1.79699e-05 0.000270411 0.398856)
(-5.25365e-05 0.000258441 0.394034)
(-8.28767e-05 0.000235913 0.384671)
(-0.000110771 0.000203841 0.371316)
(-0.000133948 0.000162966 0.354736)
(0.000403599 0.000477921 0.571874)
(0.000348175 0.000593091 0.597367)
(0.000268911 0.000691076 0.617841)
(0.000171911 0.000762979 0.632171)
(5.91175e-05 0.000801599 0.639545)
(-5.91707e-05 0.000801596 0.639545)
(-0.000171963 0.00076297 0.632171)
(-0.00026896 0.000691062 0.617841)
(-0.000348221 0.00059307 0.597367)
(-0.000403638 0.000477897 0.571874)
(0.000804121 0.000942116 0.77347)
(0.000702377 0.00116023 0.806276)
(0.000547457 0.00135071 0.832511)
(0.000350705 0.00149199 0.850837)
(0.000120788 0.00156805 0.860256)
(-0.000120866 0.00156804 0.860256)
(-0.000350781 0.00149198 0.850837)
(-0.000547528 0.00135069 0.83251)
(-0.000702443 0.0011602 0.806275)
(-0.000804178 0.000942087 0.773469)
(0.00129651 0.00150896 0.959295)
(0.00113577 0.00184125 0.997824)
(0.000887101 0.00213395 1.02847)
(0.000567975 0.00235135 1.04983)
(0.000195599 0.00246825 1.06079)
(-0.000195701 0.00246825 1.06079)
(-0.000568074 0.00235133 1.04983)
(-0.000887195 0.00213393 1.02847)
(-0.00113586 0.00184122 0.997823)
(-0.00129658 0.00150893 0.959295)
(0.00183015 0.00211848 1.12914)
(0.00160051 0.00255628 1.17182)
(0.00124832 0.00294178 1.20557)
(0.000797557 0.00322724 1.22903)
(0.000274386 0.00338031 1.24105)
(-0.000274513 0.0033803 1.24105)
(-0.00079768 0.00322723 1.22903)
(-0.00124844 0.00294176 1.20557)
(-0.00160062 0.00255625 1.17182)
(-0.00183024 0.00211845 1.12914)
(0.00234878 0.0027045 1.2828)
(0.00204458 0.00321979 1.32811)
(0.00158892 0.0036707 1.36371)
(0.00101183 0.00400264 1.38837)
(0.000347528 0.00417987 1.40099)
(-0.000347677 0.00417986 1.40099)
(-0.00101197 0.00400263 1.38837)
(-0.00158905 0.00367068 1.36371)
(-0.0020447 0.00321977 1.32811)
(-0.00234889 0.00270447 1.2828)
(0.002797 0.00320143 1.42002)
(0.00241851 0.00375053 1.46655)
(0.00186965 0.00422561 1.50286)
(0.00118544 0.00457229 1.52792)
(0.000406248 0.00475628 1.5407)
(-0.000406419 0.00475628 1.5407)
(-0.00118561 0.00457228 1.52792)
(-0.00186981 0.0042256 1.50286)
(-0.00241866 0.00375051 1.46655)
(-0.00279713 0.00320141 1.42002)
(0.00313122 0.00355526 1.54033)
(0.00268418 0.00408618 1.58704)
(0.00206003 0.00453394 1.62313)
(0.00129858 0.00485667 1.64785)
(0.000443678 0.00502649 1.66039)
(-0.000443866 0.00502649 1.66039)
(-0.00129876 0.00485667 1.64785)
(-0.0020602 0.00453394 1.62313)
(-0.00268434 0.00408616 1.58703)
(-0.00313136 0.00355524 1.54033)
(0.00332573 0.00377298 1.64301)
(0.00281361 0.00418934 1.68999)
(0.00213484 0.0045442 1.72495)
(0.00133514 0.00479525 1.74855)
(0.000454341 0.00492576 1.76043)
(-0.000454539 0.00492576 1.76043)
(-0.00133533 0.00479525 1.74855)
(-0.00213502 0.0045442 1.72494)
(-0.00281378 0.00418934 1.68999)
(-0.00332588 0.00377297 1.643)
(-5.60417e-07 2.68585e-08 0.122135)
(-1.55551e-06 4.70263e-07 0.128185)
(-1.71762e-06 2.72433e-07 0.133063)
(-1.12158e-06 -5.49022e-08 0.136488)
(-4.0624e-07 -2.41306e-07 0.138253)
(3.99827e-07 -2.41798e-07 0.138253)
(1.11534e-06 -5.63569e-08 0.136488)
(1.71167e-06 2.70079e-07 0.133063)
(1.54974e-06 4.66947e-07 0.128185)
(5.55655e-07 2.28349e-08 0.122135)
(3.67493e-05 4.4292e-05 0.354193)
(3.00804e-05 5.6361e-05 0.370745)
(2.24583e-05 6.58559e-05 0.384075)
(1.43259e-05 7.26643e-05 0.393421)
(4.90045e-06 7.63308e-05 0.398234)
(-4.92186e-06 7.63294e-05 0.398234)
(-1.43467e-05 7.26601e-05 0.393421)
(-2.2478e-05 6.58492e-05 0.384075)
(-3.00991e-05 5.63517e-05 0.370745)
(-3.67648e-05 4.42807e-05 0.354193)
(0.000127275 0.000149501 0.570986)
(0.000110084 0.000187633 0.59644)
(8.54248e-05 0.000220383 0.61688)
(5.48818e-05 0.000244796 0.631187)
(1.89098e-05 0.00025802 0.638548)
(-1.89476e-05 0.000258018 0.638548)
(-5.49185e-05 0.000244789 0.631187)
(-8.54595e-05 0.000220372 0.61688)
(-0.000110117 0.000187618 0.59644)
(-0.000127302 0.000149485 0.570986)
(0.000270634 0.000314954 0.772336)
(0.000237592 0.000391525 0.80511)
(0.000186226 0.000459024 0.831318)
(0.000119842 0.000509751 0.849627)
(4.1359e-05 0.00053725 0.859038)
(-4.14139e-05 0.000537247 0.859038)
(-0.000119896 0.000509743 0.849627)
(-0.000186277 0.000459011 0.831318)
(-0.000237639 0.000391507 0.805109)
(-0.000270675 0.000314933 0.772336)
(0.000454989 0.000526384 0.958069)
(0.000401012 0.000647777 0.996595)
(0.000315081 0.000755696 1.02724)
(0.000202643 0.000836807 1.04861)
(6.99308e-05 0.000880706 1.05957)
(-7.00031e-05 0.000880703 1.05957)
(-0.000202713 0.000836798 1.04861)
(-0.000315147 0.000755682 1.02724)
(-0.000401073 0.000647757 0.996594)
(-0.000455042 0.000526361 0.958069)
(0.000662331 0.000762412 1.12801)
(0.000583116 0.000927322 1.17074)
(0.000457614 0.00107389 1.20453)
(0.000293694 0.00118363 1.22803)
(0.000101255 0.00124284 1.24007)
(-0.000101344 0.00124284 1.24007)
(-0.000293781 0.00118362 1.22803)
(-0.000457696 0.00107387 1.20453)
(-0.000583192 0.000927302 1.17074)
(-0.000662398 0.000762389 1.12801)
(0.000870895 0.000997416 1.28196)
(0.000763515 0.00119647 1.32738)
(0.000597085 0.00137231 1.36308)
(0.000381943 0.00150312 1.38783)
(0.000131463 0.00157337 1.4005)
(-0.000131569 0.00157336 1.4005)
(-0.000382046 0.00150311 1.38783)
(-0.000597183 0.0013723 1.36308)
(-0.000763605 0.00119645 1.32738)
(-0.000870974 0.000997394 1.28196)
(0.00105797 0.00120453 1.41963)
(0.000921577 0.00142133 1.46636)
(0.000716874 0.0016107 1.50285)
(0.000456532 0.00175022 1.52804)
(0.000156775 0.00182466 1.54089)
(-0.000156896 0.00182465 1.54089)
(-0.00045665 0.00175021 1.52804)
(-0.000716986 0.00161069 1.50285)
(-0.00092168 0.00142131 1.46636)
(-0.00105806 0.00120451 1.41963)
(0.0012047 0.00136066 1.54054)
(0.00104025 0.00157464 1.58753)
(0.000803078 0.00175664 1.62387)
(0.000508314 0.00188882 1.64877)
(0.000174003 0.00195867 1.66141)
(-0.000174137 0.00195867 1.66141)
(-0.000508444 0.00188881 1.64877)
(-0.000803202 0.00175663 1.62387)
(-0.00104036 0.00157463 1.58753)
(-0.0012048 0.00136064 1.54054)
(0.00129855 0.00146728 1.64391)
(0.00110548 0.00163974 1.69127)
(0.000843267 0.00178629 1.72652)
(0.000529292 0.00189047 1.75035)
(0.000180412 0.0019448 1.76234)
(-0.000180554 0.0019448 1.76234)
(-0.00052943 0.00189047 1.75035)
(-0.000843399 0.00178629 1.72652)
(-0.00110561 0.00163974 1.69127)
(-0.00129866 0.00146727 1.64391)
(-2.47949e-08 7.15206e-07 0.12211)
(-8.57053e-07 1.07905e-06 0.128158)
(-1.05187e-06 9.04552e-07 0.133033)
(-7.64899e-07 6.13497e-07 0.136455)
(-2.84719e-07 4.27595e-07 0.138219)
(2.80314e-07 4.27248e-07 0.138219)
(7.6061e-07 6.12503e-07 0.136455)
(1.04781e-06 9.02912e-07 0.133033)
(8.53251e-07 1.07682e-06 0.128158)
(2.1598e-08 7.12569e-07 0.12211)
(1.00868e-05 1.3399e-05 0.354071)
(6.96429e-06 1.73083e-05 0.370612)
(4.54288e-06 1.97351e-05 0.383932)
(2.68453e-06 2.12408e-05 0.393269)
(8.77195e-07 2.1996e-05 0.398078)
(-8.91903e-07 2.1995e-05 0.398078)
(-2.69883e-06 2.12379e-05 0.393269)
(-4.55636e-06 1.97303e-05 0.383931)
(-6.97674e-06 1.7302e-05 0.370612)