/*--------------------------------*- C++ -*----------------------------------*\
| =========                 |                                                 |
| \\      /  F ield         | OpenFOAM: The Open Source CFD Toolbox           |
|  \\    /   O peration     | Version:  2106                                  |
|   \\  /    A nd           | Website:  www.openfoam.com                      |
|    \\/     M anipulation  |                                                 |
\*---------------------------------------------------------------------------*/
FoamFile
{
    version     2.0;
    format      ascii;
    arch        "LSB;label=32;scalar=64";
    class       surfaceScalarField;
    location    "0.72";
    object      phi;
}
// * * * * * * * * * * * * * * * * * * * * * * * * * * * * * * * * * * * * * //

dimensions      [0 3 -1 0 0 0 0];

oriented        oriented;

internalField   nonuniform List<scalar> 
29100
(
0.00118095
0.150401
0.0809202
-3.94079e-10
0.00145322
0.155279
0.0889263
0.00124708
0.158698
0.0956143
0.000710224
0.160976
0.100401
-1.25047e-09
0.162119
0.102894
-0.000710226
0.162119
0.102894
-0.00124709
0.160976
0.100401
-0.00145322
0.158698
0.0956143
-0.00118096
0.155279
0.0889263
0.150401
0.0809202
-2.56291e-09
0.00236449
0.208252
0.155456
-5.69379e-10
0.00328438
0.212836
0.16898
0.00292941
0.215908
0.180037
0.00169463
0.217825
0.187857
-4.06742e-09
0.218764
0.191898
-0.00169464
0.218764
0.191898
-0.00292941
0.217825
0.187857
-0.00328439
0.215908
0.180037
-0.0023645
0.212836
0.16898
0.208252
0.155456
-6.77034e-09
0.00301639
0.219394
0.18468
-7.55865e-10
0.00426645
0.22232
0.199703
0.00382981
0.224227
0.211796
0.00221819
0.225267
0.220272
-6.90542e-09
0.22575
0.224628
-0.0022182
0.22575
0.224628
-0.00382982
0.225267
0.220272
-0.00426646
0.224227
0.211796
-0.0030164
0.22232
0.199703
0.219394
0.18468
-1.06548e-08
0.00344519
0.206175
0.19178
-9.30203e-10
0.00480664
0.207434
0.20694
0.00430569
0.208201
0.218991
0.00248937
0.20844
0.227377
-9.82008e-09
0.208511
0.231669
-0.00248939
0.208511
0.231669
-0.00430571
0.20844
0.227377
-0.00480666
0.208201
0.218991
-0.0034452
0.207434
0.20694
0.206175
0.19178
-1.42728e-08
0.00367453
0.181262
0.186412
-1.09988e-09
0.00505737
0.181238
0.201208
0.00451803
0.181139
0.212851
0.00260873
0.180809
0.220905
-1.28125e-08
0.180594
0.225014
-0.00260876
0.180594
0.225014
-0.00451805
0.180809
0.220905
-0.00505739
0.181139
0.212851
-0.00367455
0.181238
0.201208
0.181262
0.186412
-1.77365e-08
0.00375949
0.151933
0.173911
-1.27414e-09
0.00512335
0.151058
0.18819
0.00456751
0.150395
0.199335
0.00263582
0.149732
0.207006
-1.59347e-08
0.149355
0.210909
-0.00263585
0.149355
0.210909
-0.00456753
0.149732
0.207006
-0.00512338
0.150395
0.199335
-0.00375951
0.151058
0.18819
0.151933
0.173911
-2.10878e-08
0.00376757
0.122268
0.157406
-1.49131e-09
0.00509839
0.120913
0.171169
0.00453839
0.119936
0.18184
0.00261886
0.119129
0.18915
-1.92329e-08
0.118693
0.192861
-0.0026189
0.118693
0.192861
-0.00453843
0.119129
0.18915
-0.00509842
0.119936
0.18184
-0.00376759
0.120913
0.171169
0.122268
0.157406
-2.43639e-08
0.00373331
0.0944827
0.13873
-1.76596e-09
0.00504468
0.0929042
0.15203
0.00449045
0.0918102
0.162287
0.00259238
0.0910054
0.169281
-2.27231e-08
0.0905891
0.172824
-0.00259242
0.0905891
0.172824
-0.00449049
0.0910054
0.169281
-0.00504472
0.0918102
0.162287
-0.00373334
0.0929042
0.15203
0.0944827
0.13873
-2.75163e-08
0.00370174
0.0696907
0.118935
-2.04048e-09
0.00502668
0.0680542
0.131838
0.00447584
0.0670146
0.141739
0.00258315
0.0663267
0.148462
-2.63363e-08
0.0659862
0.151859
-0.0025832
0.0659862
0.151859
-0.00447589
0.0663267
0.148462
-0.00502672
0.0670146
0.141739
-0.00370178
0.0680542
0.131838
0.0696907
0.118935
-3.04458e-08
0.00392206
0.0986243
-2.26953e-09
0.0481571
0.00521644
0.11119
0.0468624
0.00458839
0.120781
0.0460402
0.00262818
0.127266
0.0455429
-2.99637e-08
0.130535
0.0452991
-0.00262824
0.130535
0.0452991
-0.00458845
0.127266
0.0455429
-0.00521649
0.120781
0.0460402
-0.00392209
0.11119
0.0468624
0.0986243
-3.27837e-08
0.0481571
-0.000240344
0.0365296
0.044631
-3.89139e-10
-0.000242385
0.0397041
0.0492242
-0.00017035
0.0423867
0.0531555
-8.48251e-05
0.0443051
0.0560107
-2.65011e-09
0.0452975
0.057512
8.482e-05
0.0452975
0.057512
0.000170345
0.0443051
0.0560107
0.00024238
0.0423867
0.0531555
0.000240339
0.0397041
0.0492242
0.0365296
0.044631
-4.37354e-09
6.49699e-05
0.0807008
0.11122
-6.19424e-10
0.00025337
0.0864919
0.122003
0.000302671
0.0913079
0.131067
0.000202717
0.0946823
0.13758
-8.77791e-09
0.0964157
0.140983
-0.000202734
0.0964157
0.140983
-0.000302688
0.0946823
0.13758
-0.000253386
0.0913079
0.131067
-6.49836e-05
0.0864919
0.122003
0.0807009
0.11122
-1.2687e-08
0.000614924
0.11221
0.152555
-8.53758e-10
0.00103333
0.118922
0.166855
0.001011
0.12443
0.178696
0.000617864
0.128215
0.187132
-1.51114e-08
0.130145
0.191517
-0.000617893
0.130145
0.191517
-0.00101103
0.128215
0.187132
-0.00103336
0.12443
0.178696
-0.000614946
0.118922
0.166855
0.11221
0.152555
-2.05087e-08
0.00123434
0.128719
0.174037
-1.08776e-09
0.00187775
0.135114
0.190104
0.00176685
0.140296
0.203236
0.00105523
0.143783
0.212521
-2.16277e-08
0.145544
0.217325
-0.00105528
0.145544
0.217325
-0.00176689
0.143783
0.212521
-0.00187778
0.140296
0.203236
-0.00123437
0.135114
0.190104
0.128719
0.174037
-2.78032e-08
0.00184012
0.131959
0.181332
-1.33588e-09
0.0026803
0.137349
0.198134
0.00247712
0.141648
0.211703
0.00146329
0.144472
0.221231
-2.82626e-08
0.145881
0.226141
-0.00146335
0.145881
0.226141
-0.00247717
0.144472
0.221231
-0.00268034
0.141648
0.211703
-0.00184016
0.137349
0.198134
0.131959
0.181332
-3.45757e-08
0.00238829
0.124959
0.178522
-1.6455e-09
0.00339437
0.129071
0.195461
0.00310464
0.132275
0.208997
0.00182262
0.13432
0.21844
-3.49592e-08
0.135324
0.223288
-0.00182269
0.135324
0.223288
-0.00310471
0.13432
0.21844
-0.00339443
0.132275
0.208997
-0.00238833
0.129071
0.195461
0.124959
0.178522
-4.07977e-08
0.00285569
0.110941
0.168568
-2.12118e-09
0.00400356
0.113771
0.185321
0.00364087
0.115895
0.198583
0.00213021
0.117202
0.207778
-4.16157e-08
0.117832
0.212483
-0.00213029
0.117832
0.212483
-0.00364095
0.117202
0.207778
-0.00400363
0.115895
0.198583
-0.00285575
0.113771
0.185321
0.110942
0.168568
-4.64242e-08
0.00323652
0.0928212
0.153613
-2.80651e-09
0.0045175
0.0944961
0.170024
0.0040995
0.0956927
0.182907
0.00239483
0.0964005
0.191788
-4.8073e-08
0.0967355
0.196315
-0.00239492
0.0967355
0.196315
-0.00409958
0.0964005
0.191788
-0.00451758
0.0956927
0.182907
-0.00323658
0.0944961
0.170024
0.0928212
0.153613
-5.13858e-08
0.00356656
0.0729944
0.135195
-3.84563e-09
0.00498537
0.0737073
0.151208
0.00451828
0.0742186
0.163681
0.00263529
0.0745173
0.172228
-5.39597e-08
0.0746587
0.176571
-0.0026354
0.0746587
0.176571
-0.00451837
0.0745173
0.172228
-0.00498545
0.0742186
0.163681
-0.00356663
0.0737073
0.151208
0.0729944
0.135195
-5.58208e-08
0.00399288
0.114405
-5.11856e-09
0.0532205
0.0055314
0.130029
0.0533291
0.00497398
0.142092
0.0534655
0.00288498
0.150309
0.053563
-5.84868e-08
0.15447
0.0536084
-0.0028851
0.15447
0.0536084
-0.00497408
0.150309
0.053563
-0.00553149
0.142092
0.0534655
-0.00399295
0.130029
0.0533291
0.114405
-5.92287e-08
0.0532205
3.93127e-05
0.00999688
0.0345948
-3.66368e-10
3.52874e-05
0.0110309
0.0381974
2.97376e-05
0.0119083
0.0412527
1.64818e-05
0.0125598
0.0434641
-3.127e-09
0.0129031
0.0446254
-1.6488e-05
0.0129031
0.0446254
-2.97434e-05
0.0125598
0.0434641
-3.52929e-05
0.0119083
0.0412527
-3.9318e-05
0.0110309
0.0381974
0.00999688
0.0345948
-4.98274e-09
0.000281533
0.0303138
0.0906211
-6.78765e-10
0.000382358
0.0330245
0.0999089
0.00034175
0.0352929
0.107723
0.000199356
0.036929
0.113353
-1.04795e-08
0.0377837
0.116301
-0.000199376
0.0377837
0.116301
-0.000341769
0.036929
0.113353
-0.000382376
0.0352929
0.107723
-0.000281549
0.0330245
0.0999089
0.0303138
0.0906211
-1.47887e-08
0.000601293
0.0512315
0.131036
-9.90489e-10
0.000853237
0.055236
0.144392
0.000773031
0.0585429
0.155526
0.000453107
0.060875
0.163506
-1.83192e-08
0.0620831
0.167671
-0.000453143
0.0620831
0.167671
-0.000773065
0.060875
0.163506
-0.000853268
0.0585429
0.155526
-0.00060132
0.055236
0.144391
0.0512315
0.131036
-2.42241e-08
0.000968866
0.067051
0.157248
-1.29585e-09
0.0013905
0.0716329
0.173286
0.00127005
0.0753707
0.186528
0.00074589
0.0779555
0.195964
-2.64569e-08
0.0792824
0.200872
-0.000745941
0.0792824
0.200872
-0.0012701
0.0779555
0.195964
-0.00139054
0.0753707
0.186528
-0.000968904
0.0716329
0.173286
0.0670511
0.157248
-3.30952e-08
0.00135914
0.0757749
0.171249
-1.64849e-09
0.00194687
0.0802745
0.188904
0.00178268
0.0838968
0.203341
0.00104721
0.0863539
0.213568
-3.47312e-08
0.0876026
0.218868
-0.00104728
0.0876026
0.218868
-0.00178274
0.0863539
0.213568
-0.00194693
0.0838968
0.203341
-0.00135919
0.0802745
0.188904
0.0757749
0.171249
-4.1285e-08
0.00175172
0.0774184
0.175127
-2.09802e-09
0.00249225
0.0813682
0.193627
0.00228105
0.0844935
0.208612
0.00133924
0.086571
0.219165
-4.29773e-08
0.0876152
0.224615
-0.00133932
0.0876152
0.224615
-0.00228112
0.086571
0.219165
-0.00249232
0.0844935
0.208612
-0.00175178
0.0813682
0.193627
0.0774185
0.175127
-4.86679e-08
0.00212328
0.0730535
0.17081
-2.7513e-09
0.00300238
0.0761903
0.18962
0.0027452
0.0786152
0.204719
0.00161082
0.0801935
0.21529
-5.09628e-08
0.080978
0.220731
-0.00161092
0.080978
0.220731
-0.0027453
0.0801936
0.21529
-0.00300246
0.0786152
0.204719
-0.00212335
0.0761903
0.18962
0.0730535
0.17081
-5.50842e-08
0.00245771
0.0642319
0.159977
-3.63252e-09
0.00346719
0.0664582
0.178747
0.00316853
0.0681362
0.193685
0.00185833
0.0692088
0.204083
-5.83557e-08
0.0697371
0.209415
-0.00185844
0.0697371
0.209415
-0.00316863
0.0692088
0.204083
-0.00346728
0.0681362
0.193685
-0.00245778
0.0664582
0.178747
0.0642319
0.159977
-6.03168e-08
0.00276751
0.0526154
0.144044
-4.83113e-09
0.00390253
0.0539656
0.162566
0.0035607
0.0549772
0.177181
0.00208539
0.0556215
0.187291
-6.46082e-08
0.0559384
0.192456
-0.00208552
0.0559384
0.192455
-0.00356081
0.0556215
0.187291
-0.00390263
0.0549773
0.177181
-0.00276759
0.0539656
0.162565
0.0526154
0.144044
-6.42717e-08
0.00311075
0.124179
-6.03708e-09
0.0397314
0.00435208
0.142369
0.040385
0.00394835
0.156564
0.0409087
0.00230307
0.166316
0.0412604
-6.89233e-08
0.171277
0.0414342
-0.0023032
0.171277
0.0414342
-0.00394847
0.166316
0.0412604
-0.00435218
0.156564
0.0409087
-0.00311083
0.142368
0.040385
0.124179
-6.63916e-08
0.0397315
-3.16222e-05
0.00408353
0.0305429
-3.33946e-10
-4.51571e-05
0.00449673
0.0337142
-3.63982e-05
0.00484735
0.0363966
-2.00631e-05
0.00510805
0.0383397
-3.0296e-09
0.00524462
0.0393607
2.00571e-05
0.00524463
0.0393607
3.63924e-05
0.00510805
0.0383397
4.51516e-05
0.00484735
0.0363966
3.1617e-05
0.00449673
0.0337142
0.00408353
0.0305429
-4.77598e-09
1.02006e-05
0.012681
0.0820135
-6.54206e-10
1.75878e-05
0.0138956
0.0905027
2.19959e-05
0.0149247
0.0976411
1.56715e-05
0.0156749
0.102793
-1.02926e-08
0.0160683
0.105493
-1.56918e-05
0.0160683
0.105493
-2.20151e-05
0.0156749
0.102793
-1.7605e-05
0.0149247
0.0976411
-1.02156e-05
0.0138956
0.0905027
0.012681
0.0820135
-1.43549e-08
0.000123956
0.0225747
0.121019
-1.02231e-09
0.000187964
0.0245921
0.133631
0.000180495
0.0262902
0.144168
0.000109959
0.0275092
0.151743
-1.81697e-08
0.0281457
0.155704
-0.000109995
0.0281457
0.155704
-0.000180529
0.0275092
0.151743
-0.000187995
0.0262902
0.144168
-0.000123983
0.0245921
0.133631
0.0225747
0.121019
-2.39326e-08
0.000295016
0.031302
0.148226
-1.41025e-09
0.00043989
0.0338719
0.163861
0.000414685
0.0360143
0.176829
0.00024863
0.0375296
0.18611
-2.64354e-08
0.0383158
0.190951
-0.000248681
0.0383158
0.190951
-0.000414733
0.0375296
0.18611
-0.000439933
0.0360143
0.176829
-0.000295053
0.0338719
0.163861
0.031302
0.148226
-3.28995e-08
0.000507723
0.0373378
0.164706
-1.86848e-09
0.000746314
0.0401185
0.182419
0.000698098
0.0424071
0.196996
0.000415848
0.0440013
0.207378
-3.48659e-08
0.0448222
0.212777
-0.000415916
0.0448222
0.212777
-0.000698162
0.0440013
0.207378
-0.000746371
0.0424071
0.196996
-0.000507771
0.0401185
0.182419
0.0373378
0.164706
-4.11208e-08
0.000746008
0.0400281
0.171691
-2.4472e-09
0.00108313
0.0426977
0.190711
0.0010077
0.0448577
0.206237
0.000597967
0.0463379
0.217238
-4.3229e-08
0.0470936
0.222941
-0.000598051
0.0470936
0.222941
-0.00100778
0.0463379
0.217238
-0.0010832
0.0448577
0.206237
-0.000746065
0.0426977
0.190711
0.0400281
0.171691
-4.84544e-08
0.000992544
0.0393904
0.170455
-3.25376e-09
0.00142857
0.041703
0.190179
0.00132416
0.0435336
0.206147
0.000783781
0.0447669
0.217401
-5.1223e-08
0.045391
0.223217
-0.000783881
0.045391
0.223217
-0.00132425
0.044767
0.217401
-0.00142865
0.0435336
0.206147
-0.000992609
0.041703
0.190179
0.0393904
0.170455
-5.4722e-08
0.00123431
0.0359026
0.162231
-4.28916e-09
0.00176923
0.0377063
0.182209
0.00163568
0.0391007
0.198251
0.000966264
0.0400257
0.209493
-5.84681e-08
0.0404899
0.215282
-0.000966377
0.0404899
0.215282
-0.00163578
0.0400257
0.209493
-0.00176932
0.0391007
0.198251
-0.00123439
0.0377063
0.182209
0.0359027
0.162231
-5.97137e-08
0.00147547
0.0303086
0.148163
-5.59375e-09
0.00210748
0.031551
0.168089
0.00194082
0.0324964
0.183952
0.00114327
0.0331179
0.194996
-6.43836e-08
0.0334282
0.200661
-0.00114339
0.0334282
0.20066
-0.00194093
0.0331179
0.194996
-0.00210758
0.0324964
0.183952
-0.00147555
0.031551
0.168089
0.0303086
0.148163
-6.33051e-08
0.00173056
0.129292
-6.92964e-09
0.0234645
0.00245371
0.149014
0.0241825
0.00224677
0.16452
0.0247478
0.00131788
0.175234
0.0251283
-6.81413e-08
0.180705
0.0253185
-0.00131801
0.180705
0.0253185
-0.00224689
0.175234
0.0251284
-0.00245381
0.16452
0.0247478
-0.00173064
0.149014
0.0241826
0.129292
-6.48463e-08
0.0234645
2.1128e-06
0.00133589
0.0292049
-3.38138e-10
-2.66926e-07
0.00148335
0.0322332
1.32427e-07
0.0016116
0.0347846
1.45423e-07
0.00170949
0.0366302
-2.64073e-09
0.0017617
0.0375992
-1.50644e-07
0.0017617
0.0375992
-1.37469e-07
0.00170949
0.0366302
2.62149e-07
0.0016116
0.0347846
-2.1172e-06
0.00148335
0.0322332
0.00133589
0.0292049
-4.28711e-09
3.09135e-05
0.00479363
0.0785248
-7.24728e-10
3.99695e-05
0.00529091
0.0866861
3.68134e-05
0.00571814
0.0935377
2.18351e-05
0.00603553
0.0984817
-9.09095e-09
0.0062037
0.101073
-2.1853e-05
0.0062037
0.101073
-3.68304e-05
0.00603553
0.0984817
-3.99853e-05
0.00571814
0.0935377
-3.09278e-05
0.00529091
0.0866861
0.00479364
0.0785248
-1.31006e-08
8.62443e-05
0.00924937
0.116477
-1.13064e-09
0.000122246
0.0101525
0.128733
0.000112837
0.0109215
0.138974
6.69728e-05
0.0114826
0.146341
-1.61834e-08
0.0117783
0.150196
-6.70045e-05
0.0117783
0.150196
-0.000112867
0.0114826
0.146341
-0.000122273
0.0109216
0.138974
-8.62685e-05
0.0101525
0.128733
0.00924938
0.116477
-2.17089e-08
0.00016786
0.013593
0.143715
-1.54881e-09
0.000243741
0.0148318
0.159106
0.000226374
0.0158769
0.171891
0.000134435
0.0166279
0.181057
-2.36818e-08
0.0170212
0.185842
-0.000134482
0.0170212
0.185842
-0.000226418
0.0166279
0.181057
-0.00024378
0.0158769
0.171891
-0.000167894
0.0148319
0.159106
0.013593
0.143715
-2.98457e-08
0.000272797
0.0169899
0.161036
-2.03861e-09
0.000397618
0.0184198
0.178706
0.000370045
0.019612
0.193289
0.000219704
0.0204565
0.2037
-3.13566e-08
0.0208956
0.209123
-0.000219765
0.0208956
0.209123
-0.000370102
0.0204565
0.2037
-0.000397669
0.019612
0.193289
-0.00027284
0.0184198
0.178706
0.0169899
0.161036
-3.73269e-08
0.000395665
0.0189406
0.169344
-2.64827e-09
0.000574857
0.0203945
0.188557
0.000534805
0.0215887
0.2043
0.000317277
0.0224221
0.21549
-3.89772e-08
0.0228521
0.221302
-0.000317353
0.0228521
0.221302
-0.000534875
0.0224222
0.21549
-0.000574919
0.0215887
0.2043
-0.000395717
0.0203945
0.188557
0.0189406
0.169344
-4.39712e-08
0.000528968
0.0192695
0.169597
-3.47619e-09
0.00076519
0.0205968
0.18974
0.00071104
0.0216669
0.206123
0.000421411
0.0224023
0.217711
-4.62386e-08
0.0227784
0.223712
-0.000421501
0.0227784
0.223712
-0.000711123
0.0224023
0.217711
-0.000765262
0.0216669
0.206123
-0.000529027
0.0205969
0.18974
0.0192695
0.169597
-4.95905e-08
0.000665951
0.0180711
0.162763
-4.52832e-09
0.000960489
0.019161
0.18335
0.00089097
0.0200219
0.199966
0.000527303
0.0206047
0.211655
-5.27635e-08
0.0209002
0.217688
-0.000527406
0.0209002
0.217688
-0.000891064
0.0206047
0.211655
-0.00096057
0.0200219
0.199966
-0.000666016
0.019161
0.18335
0.0180711
0.162763
-5.39851e-08
0.000806588
0.0156353
0.149792
-5.8409e-09
0.00115781
0.0164315
0.170467
0.00106974
0.0170483
0.187014
0.000631429
0.0174604
0.198579
-5.80062e-08
0.017668
0.204524
-0.000631541
0.017668
0.204524
-0.00106985
0.0174605
0.198579
-0.0011579
0.0170483
0.187014
-0.000806657
0.0164315
0.170467
0.0156353
0.149792
-5.70638e-08
0.000945545
0.131602
-7.14384e-09
0.0123802
0.00134937
0.15217
0.0128713
0.00124202
0.168418
0.0132571
0.000730948
0.179687
0.0135188
-6.12056e-08
0.185453
0.0136506
-0.000731066
0.185453
0.0136506
-0.00124213
0.179687
0.0135188
-0.00134946
0.168418
0.0132571
-0.000945616
0.15217
0.0128713
0.131602
-5.82645e-08
0.0123803
-5.57372e-06
0.000582751
0.0286277
-2.8835e-10
-8.3089e-06
0.00064109
0.0315948
-6.58269e-06
0.000690446
0.0340924
-3.62766e-06
0.000727965
0.0358993
-2.10629e-09
0.000747686
0.0368479
3.62328e-06
0.000747687
0.0368479
6.57855e-06
0.000727966
0.0358993
8.30508e-06
0.000690447
0.0340924
5.56991e-06
0.000641092
0.0315948
0.000582752
0.0286277
-3.63879e-09
-8.64924e-07
0.00203038
0.077078
-6.43251e-10
-1.9018e-06
0.00223677
0.0850915
-6.32719e-07
0.00241264
0.0918142
1.66293e-07
0.00254338
0.0966655
-7.31279e-09
0.00261266
0.0992085
-1.79656e-07
0.00261266
0.0992085
6.19003e-07
0.00254339
0.0966655
1.88774e-06
0.00241265
0.0918142
8.53018e-07
0.00223677
0.0850914
0.00203038
0.077078
-1.10699e-08
1.773e-05
0.00394923
0.11454
-1.05786e-09
2.62267e-05
0.00434316
0.126619
2.57216e-05
0.00467889
0.136708
1.58934e-05
0.00492523
0.143969
-1.33642e-08
0.00505542
0.147769
-1.59199e-05
0.00505542
0.147769
-2.57465e-05
0.00492524
0.143969
-2.62492e-05
0.0046789
0.136708
-1.77501e-05
0.00434317
0.126618
0.00394923
0.11454
-1.83622e-08
5.08726e-05
0.00591893
0.141694
-1.49512e-09
7.57271e-05
0.00648618
0.156938
7.20826e-05
0.00696706
0.169607
4.35129e-05
0.00731563
0.178695
-1.97127e-08
0.00749899
0.183442
-4.35516e-05
0.00749899
0.183442
-7.21189e-05
0.00731563
0.178695
-7.57597e-05
0.00696707
0.169607
-5.0901e-05
0.00648619
0.156938
0.00591895
0.141694
-2.52853e-08
9.73336e-05
0.00756786
0.15929
-1.99621e-09
0.000144175
0.00825321
0.176892
0.000136136
0.0088288
0.191435
8.16037e-05
0.0092408
0.201829
-2.61996e-08
0.00945623
0.207247
-8.16549e-05
0.00945624
0.207247
-0.000136183
0.00924081
0.201829
-0.000144217
0.00882881
0.191435
-9.73699e-05
0.00825322
0.176892
0.00756788
0.15929
-3.16646e-08
0.000154972
0.0086306
0.168127
-2.60018e-09
0.000227952
0.00935793
0.187379
0.000214288
0.0099607
0.203182
0.000127991
0.0103864
0.21443
-3.26439e-08
0.0106074
0.220279
-0.000128055
0.0106074
0.220279
-0.000214347
0.0103864
0.21443
-0.000228004
0.00996071
0.203182
-0.000155016
0.00935795
0.187379
0.00863062
0.168127
-3.73328e-08
0.000220553
0.00897064
0.169036
-3.37999e-09
0.000322458
0.00966217
0.189334
0.000302163
0.0102255
0.205879
0.000180036
0.0106177
0.217602
-3.87784e-08
0.0108197
0.22368
-0.000180112
0.0108197
0.22368
-0.000302232
0.0106177
0.217602
-0.000322518
0.0102255
0.205878
-0.000220603
0.00966219
0.189334
0.00897066
0.169036
-4.21176e-08
0.000291042
0.00857797
0.162865
-4.32548e-09
0.000423741
0.00916911
0.18371
0.000395809
0.00964152
0.200578
0.000235255
0.00996553
0.212467
-4.42747e-08
0.010131
0.218612
-0.000235341
0.010131
0.218612
-0.000395888
0.00996554
0.212467
-0.000423808
0.00964154
0.200578
-0.000291097
0.00916913
0.18371
0.00857799
0.162865
-4.58403e-08
0.000366603
0.00754864
0.150455
-5.44947e-09
0.000530084
0.0079999
0.171473
0.000492401
0.00835312
0.18834
0.000291617
0.00859186
0.200153
-4.86734e-08
0.00871281
0.206234
-0.000291711
0.00871282
0.206234
-0.000492487
0.00859187
0.200153
-0.000530157
0.00835313
0.18834
-0.000366661
0.00799992
0.171473
0.00754866
0.150455
-4.84057e-08
0.000442384
0.132645
-6.54608e-09
0.00606249
0.000635892
0.153622
0.0063548
0.00058843
0.170233
0.0065856
0.00034742
0.181777
0.00674308
-5.13566e-08
0.187691
0.00682274
-0.000347519
0.187691
0.00682274
-0.00058852
0.181776
0.00674309
-0.000635968
0.170233
0.00658561
-0.000442444
0.153622
0.00635481
0.132645
-4.93737e-08
0.0060625
-8.41704e-07
0.000189467
0.0284391
-2.31597e-10
-1.63459e-06
0.000209866
0.0313858
-1.18929e-06
0.000227618
0.0338644
-6.3563e-07
0.000241553
0.0356572
-1.65454e-09
0.000248989
0.0365983
6.32318e-07
0.000248989
0.0365983
1.1861e-06
0.000241554
0.0356572
1.63147e-06
0.000227619
0.0338644
8.38685e-07
0.000209867
0.0313858
0.000189468
0.0284391
-2.85476e-09
1.84259e-06
0.000739819
0.0765259
-5.3239e-10
1.96031e-06
0.000819251
0.084482
2.12287e-06
0.000888049
0.0911536
1.38895e-06
0.00094011
0.0959677
-5.80069e-09
0.000967901
0.098491
-1.40044e-06
0.000967902
0.098491
-2.13383e-06
0.000940112
0.0959677
-1.9704e-06
0.000888052
0.0911536
-1.85166e-06
0.000819254
0.0844819
0.000739822
0.0765258
-8.73147e-09
9.9566e-06
0.00152145
0.113749
-9.01738e-10
1.39735e-05
0.00168159
0.125752
1.32649e-05
0.00181963
0.135777
8.03356e-06
0.00192225
0.142992
-1.04823e-08
0.00197685
0.146768
-8.05418e-06
0.00197685
0.146768
-1.32844e-05
0.00192226
0.142992
-1.39914e-05
0.00181964
0.135777
-9.97249e-06
0.0016816
0.125752
0.00152146
0.113749
-1.46092e-08
2.41508e-05
0.00236652
0.140825
-1.30662e-09
3.51794e-05
0.00260707
0.156002
3.31321e-05
0.00281307
0.168616
1.98736e-05
0.00296415
0.177666
-1.54982e-08
0.00304415
0.182395
-1.9904e-05
0.00304415
0.182395
-3.31607e-05
0.00296416
0.177666
-3.52053e-05
0.00281307
0.168615
-2.41733e-05
0.00260708
0.156002
0.00236653
0.140825
-2.02243e-08
4.44958e-05
0.00311455
0.158497
-1.77115e-09
6.53388e-05
0.00341593
0.176063
6.14418e-05
0.00367162
0.19058
3.67414e-05
0.00385678
0.200961
-2.06669e-08
0.00395423
0.206374
-3.67818e-05
0.00395423
0.206374
-6.14795e-05
0.00385679
0.200961
-6.53726e-05
0.00367163
0.19058
-4.45246e-05
0.00341594
0.176063
0.00311456
0.158497
-2.54162e-08
7.04302e-05
0.0036386
0.167532
-2.31388e-09
0.000103378
0.00396893
0.186793
9.70872e-05
0.00424567
0.202614
5.79552e-05
0.00444344
0.213883
-2.58139e-08
0.0045468
0.219745
-5.80056e-05
0.0045468
0.219745
-9.7134e-05
0.00444345
0.213883
-0.00010342
0.00424569
0.202614
-7.04648e-05
0.00396895
0.186793
0.00363861
0.167532
-3.00457e-08
0.000100765
0.00386107
0.168713
-2.98385e-09
0.000147509
0.00418452
0.189072
0.000138316
0.00445116
0.205682
8.24401e-05
0.00463902
0.217462
-3.07216e-08
0.00473642
0.223573
-8.25e-05
0.00473642
0.223573
-0.000138372
0.00463902
0.217462
-0.000147557
0.00445117
0.205682
-0.000100805
0.00418454
0.189071
0.00386109
0.168713
-3.39749e-08
0.000134213
0.00375919
0.162833
-3.77788e-09
0.000195894
0.00404359
0.18379
0.000183221
0.00427368
0.200768
0.00010898
0.0044333
0.212747
-3.51312e-08
0.00451531
0.218942
-0.000109049
0.00451531
0.218942
-0.000183284
0.00443331
0.212747
-0.000195948
0.0042737
0.200768
-0.000134257
0.0040436
0.18379
0.0037592
0.162833
-3.70644e-08
0.000170517
0.00336114
0.150682
-4.7042e-09
0.000247112
0.00358479
0.171855
0.000229903
0.00376143
0.18887
0.000136295
0.0038819
0.200798
-3.86858e-08
0.00394322
0.206942
-0.00013637
0.00394322
0.206942
-0.000229971
0.00388191
0.200798
-0.000247171
0.00376144
0.18887
-0.000170564
0.0035848
0.171855
0.00336116
0.150682
-3.92383e-08
0.00020516
0.133061
-5.5707e-09
0.00274067
0.000296314
0.154226
0.00288941
0.000275147
0.171009
0.00300715
0.000162802
0.182683
0.00308786
-4.09148e-08
0.188668
0.00312886
-0.000162881
0.188668
0.00312886
-0.000275219
0.182683
0.00308787
-0.000296375
0.171008
0.00300716
-0.000205208
0.154226
0.00288942
0.133061
-4.01542e-08
0.00274067
-1.37684e-06
7.70756e-05
0.0283634
-1.89465e-10
-1.9822e-06
8.46206e-05
0.0313018
-1.59194e-06
9.1079e-05
0.0337729
-8.78652e-07
9.61093e-05
0.0355604
-1.22263e-09
9.87671e-05
0.0364986
8.76224e-07
9.87672e-05
0.0364986
1.58958e-06
9.61097e-05
0.0355604
1.97993e-06
9.10796e-05
0.0337729
1.37461e-06
8.46214e-05
0.0313017
7.70762e-05
0.0283634
-2.12526e-09
-1.62077e-06
0.000290332
0.0763142
-4.75861e-10
-2.43829e-06
0.000320707
0.0842467
-1.95448e-06
0.000346956
0.0908973
-1.03856e-06
0.000366865
0.095696
-4.31718e-09
0.000377483
0.0982112
1.03003e-06
0.000377483
0.0982112
1.94631e-06
0.000366866
0.095696
2.43062e-06
0.000346958
0.0908972
1.61357e-06
0.00032071
0.0842467
0.000290334
0.0763142
-6.58559e-09
8.41658e-07
0.000598169
0.11344
-7.78079e-10
1.10099e-06
0.000661764
0.125411
1.30748e-06
0.000716599
0.135407
9.16956e-07
0.000757577
0.142602
-7.82933e-09
0.00077943
0.146367
-9.32356e-07
0.000779431
0.146367
-1.32209e-06
0.00075758
0.142602
-1.11422e-06
0.000716602
0.135407
-8.52849e-07
0.000661768
0.125411
0.000598174
0.11344
-1.09271e-08
5.97161e-06
0.00094235
0.140475
-1.11574e-09
8.82841e-06
0.00104106
0.15562
8.55515e-06
0.00112584
0.168207
5.23785e-06
0.00118842
0.177239
-1.16223e-08
0.00122167
0.181958
-5.26065e-06
0.00122167
0.181958
-8.57663e-06
0.00118842
0.177239
-8.84788e-06
0.00112584
0.168207
-5.98867e-06
0.00104106
0.15562
0.000942357
0.140475
-1.53644e-08
1.4023e-05
0.00125965
0.158166
-1.4916e-09
2.07902e-05
0.0013871
0.17571
1.97892e-05
0.00149571
0.190211
1.19352e-05
0.00157491
0.200583
-1.55506e-08
0.00161676
0.205991
-1.19656e-05
0.00161676
0.205991
-1.98177e-05
0.00157492
0.200583
-2.08157e-05
0.00149571
0.190211
-1.40449e-05
0.00138711
0.17571
0.00125966
0.158166
-1.94515e-08
2.47587e-05
0.00149502
0.167272
-1.92592e-09
3.66176e-05
0.00163867
0.18653
3.4652e-05
0.00175964
0.202352
2.0791e-05
0.00184674
0.213625
-1.94752e-08
0.00189245
0.21949
-2.08291e-05
0.00189245
0.21949
-3.46874e-05
0.00184674
0.213625
-3.66489e-05
0.00175965
0.202352
-2.47851e-05
0.00163868
0.18653
0.00149503
0.167272
-2.31005e-08
3.77407e-05
0.00161044
0.16856
-2.45318e-09
5.56317e-05
0.00175481
0.188938
5.24717e-05
0.00187453
0.205571
3.13907e-05
0.00195953
0.21737
-2.32272e-08
0.00200379
0.223493
-3.1436e-05
0.00200379
0.223493
-5.25136e-05
0.00195954
0.21737
-5.56684e-05
0.00187454
0.20557
-3.77711e-05
0.00175482
0.188937
0.00161045
0.16856
-2.6229e-08
5.24894e-05
0.0015896
0.162801
-3.06086e-09
7.71007e-05
0.00171977
0.1838
7.24595e-05
0.00182578
0.200821
4.32236e-05
0.00189986
0.212836
-2.66127e-08
0.00193807
0.219051
-4.32754e-05
0.00193808
0.219051
-7.25071e-05
0.00189986
0.212836
-7.7142e-05
0.00182578
0.200821
-5.2523e-05
0.00171978
0.1838
0.00158961
0.162801
-2.8736e-08
6.89759e-05
0.0014384
0.150765
-3.73843e-09
0.000100448
0.00154344
0.172
9.3796e-05
0.00162691
0.189075
5.57295e-05
0.0016842
0.201052
-2.93738e-08
0.00171346
0.207223
-5.57865e-05
0.00171346
0.207223
-9.38482e-05
0.0016842
0.201052
-0.000100493
0.00162692
0.189075
-6.90119e-05
0.00154345
0.172
0.00143841
0.150765
-3.05627e-08
8.50305e-05
0.13323
-4.35422e-09
0.00118447
0.000123438
0.154475
0.00125623
0.000115055
0.171331
0.00131328
6.82292e-05
0.183061
0.00135255
-3.11778e-08
0.189077
0.00137254
-6.82897e-05
0.189077
0.00137254
-0.00011511
0.183061
0.00135255
-0.000123485
0.171331
0.00131329
-8.50678e-05
0.154475
0.00125624
0.13323
-3.14969e-08
0.00118447
-3.96174e-07
1.99932e-05
0.0283438
-1.33665e-10
-6.09729e-07
2.21468e-05
0.0312798
-4.89202e-07
2.41147e-05
0.0337487
-2.71486e-07
2.57337e-05
0.0355344
-8.64375e-10
2.66068e-05
0.0364717
2.6977e-07
2.66069e-05
0.0364717
4.87531e-07
2.5734e-05
0.0355344
6.08109e-07
2.41151e-05
0.0337487
3.94597e-07
2.21474e-05
0.0312798
1.99936e-05
0.0283438
-1.50607e-09
-5.12429e-07
8.9816e-05
0.0762449
-3.56144e-10
-8.70341e-07
9.99897e-05
0.0841692
-7.26182e-07
0.000109047
0.0908122
-3.97764e-07
0.000116096
0.0956053
-3.0792e-09
0.000119899
0.0981175
3.91686e-07
0.000119899
0.0981175
7.20352e-07
0.000116097
0.0956053
8.64848e-07
0.000109048
0.0908122
5.07251e-07
9.99915e-05
0.0841692
8.98174e-05
0.0762449
-4.7235e-09
3.3564e-07
0.000199741
0.11333
-5.94052e-10
3.0301e-07
0.000222549
0.125288
3.36412e-07
0.000242582
0.135274
2.35062e-07
0.00025782
0.14246
-5.61108e-09
0.000266018
0.146221
-2.46095e-07
0.000266018
0.146221
-3.46905e-07
0.000257822
0.14246
-3.12499e-07
0.000242585
0.135274
-3.43663e-07
0.000222553
0.125288
0.000199745
0.11333
-7.8863e-09
2.23366e-06
0.00032957
0.140343
-8.61966e-10
3.14715e-06
0.000366573
0.155475
2.99432e-06
0.000398807
0.16805
1.81678e-06
0.000422944
0.177075
-8.36188e-09
0.000435862
0.18179
-1.83319e-06
0.000435863
0.18179
-3.0098e-06
0.000422946
0.177075
-3.16122e-06
0.000398811
0.16805
-2.246e-06
0.000366578
0.155475
0.000329575
0.140343
-1.11691e-08
5.34437e-06
0.000455317
0.158035
-1.15437e-09
7.78322e-06
0.000504737
0.175569
7.35163e-06
0.000547361
0.190063
4.41572e-06
0.000578841
0.20043
-1.12231e-08
0.000595587
0.205835
-4.4377e-06
0.000595588
0.205835
-7.37222e-06
0.000578844
0.20043
-7.80171e-06
0.000547366
0.190063
-5.3603e-06
0.000504744
0.175569
0.000455324
0.158035
-1.42313e-08
9.62421e-06
0.000554397
0.167163
-1.48092e-09
1.41371e-05
0.000611662
0.186418
1.33353e-05
0.000660429
0.20224
7.98658e-06
0.000695951
0.213513
-1.40908e-08
0.000714712
0.219379
-8.01412e-06
0.000714713
0.219379
-1.3361e-05
0.000695955
0.213513
-1.41599e-05
0.000660435
0.20224
-9.6435e-06
0.000611669
0.186418
0.000554405
0.167163
-1.70021e-08
1.49327e-05
0.000609722
0.16849
-1.86131e-09
2.19745e-05
0.000668665
0.188873
2.07064e-05
0.000718071
0.205514
1.23795e-05
0.000753526
0.217321
-1.68439e-08
0.000772095
0.223448
-1.24123e-05
0.000772096
0.223448
-2.07369e-05
0.00075353
0.217321
-2.20013e-05
0.000718078
0.205514
-1.4955e-05
0.000668673
0.188873
0.00060973
0.16849
-1.94202e-08
2.10876e-05
0.000612341
0.162777
-2.29024e-09
3.09889e-05
0.000666667
0.183792
2.91259e-05
0.000711336
0.20083
1.73735e-05
0.000742844
0.212859
-1.93489e-08
0.000759179
0.219081
-1.74112e-05
0.000759181
0.219081
-2.91606e-05
0.000742848
0.212859
-3.10192e-05
0.000711342
0.20083
-2.11124e-05
0.000666675
0.183792
0.000612349
0.162777
-2.14113e-08
2.80145e-05
0.000562387
0.150787
-2.76229e-09
4.08358e-05
0.000607198
0.172047
3.81589e-05
0.000643014