/*--------------------------------*- C++ -*----------------------------------*\
| =========                 |                                                 |
| \\      /  F ield         | OpenFOAM: The Open Source CFD Toolbox           |
|  \\    /   O peration     | Version:  2106                                  |
|   \\  /    A nd           | Website:  www.openfoam.com                      |
|    \\/     M anipulation  |                                                 |
\*---------------------------------------------------------------------------*/
FoamFile
{
    version     2.0;
    format      ascii;
    arch        "LSB;label=32;scalar=64";
    class       surfaceScalarField;
    location    "0.72";
    object      phi;
}
// * * * * * * * * * * * * * * * * * * * * * * * * * * * * * * * * * * * * * //

dimensions      [0 3 -1 0 0 0 0];

oriented        oriented;

internalField   nonuniform List<scalar> 
29100
(
0.00119008
0.151552
0.081556
-3.60275e-10
0.00146443
0.156466
0.0896249
0.0012567
0.159911
0.0963654
0.000715697
0.162205
0.10119
-2.0872e-09
0.163357
0.103703
-0.000715701
0.163357
0.103703
-0.0012567
0.162205
0.10119
-0.00146444
0.159911
0.0963654
-0.00119008
0.156466
0.0896249
0.151552
0.081556
-4.05061e-09
0.00238258
0.209832
0.156673
-6.93797e-10
0.00330949
0.21445
0.170303
0.00295178
0.217543
0.181447
0.00170757
0.219473
0.189328
-5.79422e-09
0.220419
0.1934
-0.00170758
0.220419
0.1934
-0.00295179
0.219473
0.189328
-0.0033095
0.217543
0.181447
-0.00238259
0.21445
0.170303
0.209832
0.156673
-1.04991e-08
0.00303924
0.221043
0.186124
-9.9515e-10
0.00429875
0.223987
0.201264
0.00385877
0.225906
0.213451
0.00223495
0.226952
0.221993
-9.32454e-09
0.227438
0.226383
-0.00223497
0.227438
0.226383
-0.00385879
0.226952
0.221993
-0.00429877
0.225906
0.213451
-0.00303926
0.223987
0.201264
0.221043
0.186124
-1.61225e-08
0.00347101
0.207707
0.193276
-1.23853e-09
0.00484262
0.208971
0.208554
0.00433786
0.20974
0.220698
0.00250795
0.209978
0.22915
-1.293e-08
0.210049
0.233475
-0.00250798
0.210049
0.233475
-0.00433789
0.209978
0.22915
-0.00484264
0.20974
0.220698
-0.00347103
0.208971
0.208554
0.207707
0.193276
-2.11283e-08
0.00370172
0.182591
0.187863
-1.46428e-09
0.00509469
0.182561
0.202774
0.00455129
0.182457
0.214506
0.00262791
0.182122
0.222623
-1.67905e-08
0.181903
0.226763
-0.00262794
0.181903
0.226763
-0.00455133
0.182122
0.222623
-0.00509472
0.182457
0.214506
-0.00370174
0.182561
0.202774
0.182591
0.187863
-2.57966e-08
0.00378689
0.15303
0.175261
-1.70686e-09
0.00516053
0.152143
0.18965
0.00460054
0.15147
0.20088
0.00265484
0.150799
0.208609
-2.10314e-08
0.150417
0.212542
-0.00265488
0.150417
0.212542
-0.00460058
0.150799
0.208609
-0.00516057
0.15147
0.20088
-0.00378692
0.152143
0.18965
0.15303
0.175261
-3.02179e-08
0.00379454
0.123136
0.158624
-2.03028e-09
0.00513468
0.121765
0.172491
0.00457055
0.120777
0.183243
0.00263736
0.119961
0.190609
-2.57214e-08
0.11952
0.194347
-0.00263741
0.11952
0.194347
-0.0045706
0.119961
0.190609
-0.00513472
0.120777
0.183243
-0.00379458
0.121765
0.172491
0.123136
0.158624
-3.44926e-08
0.00375951
0.0951412
0.139798
-2.38494e-09
0.00507983
0.0935463
0.1532
0.00452156
0.0924404
0.163533
0.00261028
0.091627
0.17058
-3.08495e-08
0.0912063
0.174149
-0.00261034
0.0912063
0.174149
-0.00452162
0.091627
0.17058
-0.00507988
0.0924403
0.163533
-0.00375956
0.0935463
0.1532
0.0951412
0.139798
-3.8559e-08
0.00372716
0.0701673
0.119847
-2.52411e-09
0.00506093
0.0685149
0.132847
0.00450618
0.0674647
0.142822
0.00260059
0.0667697
0.149595
-3.62702e-08
0.0664257
0.153017
-0.00260066
0.0664257
0.153017
-0.00450624
0.0667697
0.149595
-0.00506099
0.0674647
0.142822
-0.00372721
0.0685149
0.132847
0.0701673
0.119847
-4.22503e-08
0.00394861
0.099377
-2.59477e-09
0.0484801
0.00525144
0.112036
0.0471732
0.00461897
0.121699
0.046343
0.0026456
0.128231
0.0458407
-4.14698e-08
0.131524
0.0455945
-0.00264569
0.131524
0.0455945
-0.00461904
0.128231
0.0458407
-0.00525151
0.121699
0.046343
-0.00394866
0.112036
0.0471732
0.099377
-4.46056e-08
0.0484801
-0.000242244
0.0368076
0.0449906
-4.59661e-10
-0.000244306
0.0400061
0.0496209
-0.000171713
0.042709
0.0535838
-8.55094e-05
0.0446418
0.056462
-3.4599e-09
0.0456417
0.0579754
8.55025e-05
0.0456417
0.0579754
0.000171706
0.0446418
0.056462
0.0002443
0.042709
0.0535838
0.000242238
0.0400061
0.0496209
0.0368076
0.0449906
-6.45031e-09
6.53e-05
0.0813036
0.112112
-8.95931e-10
0.000255082
0.087137
0.122982
0.000304776
0.091988
0.132118
0.000204141
0.0953869
0.138684
-1.05427e-08
0.0971328
0.142113
-0.000204162
0.0971328
0.142113
-0.000304797
0.0953869
0.138684
-0.000255102
0.091988
0.132118
-6.53187e-05
0.087137
0.122982
0.0813036
0.112112
-1.80742e-08
0.000619228
0.113033
0.153775
-1.38235e-09
0.00104064
0.119791
0.168189
0.00101817
0.125338
0.180124
0.000622249
0.129149
0.188627
-1.7784e-08
0.131092
0.193047
-0.000622284
0.131092
0.193047
-0.0010182
0.129149
0.188627
-0.00104067
0.125338
0.180124
-0.000619258
0.119791
0.168189
0.113033
0.153775
-2.88757e-08
0.00124299
0.129643
0.175422
-1.83686e-09
0.0018909
0.136081
0.191617
0.00177921
0.141297
0.204851
0.00106261
0.144806
0.214209
-2.52928e-08
0.146578
0.219051
-0.00106266
0.146578
0.219051
-0.00177926
0.144806
0.214209
-0.00189095
0.141297
0.204851
-0.00124303
0.136081
0.191617
0.129643
0.175422
-3.8664e-08
0.00185284
0.132887
0.182768
-2.309e-09
0.00269873
0.138309
0.1997
0.0024941
0.142634
0.213374
0.0014733
0.145474
0.222975
-3.31909e-08
0.146891
0.227923
-0.00147337
0.146891
0.227923
-0.00249416
0.145474
0.222975
-0.00269879
0.142634
0.213374
-0.00185289
0.138309
0.1997
0.132887
0.182768
-4.75754e-08
0.00240448
0.125818
0.179925
-2.85163e-09
0.00341722
0.129952
0.196994
0.00312543
0.133173
0.210633
0.00183478
0.135228
0.220147
-4.15243e-08
0.136237
0.225031
-0.00183487
0.136237
0.225031
-0.0031255
0.135228
0.220147
-0.00341729
0.133173
0.210632
-0.00240454
0.129952
0.196994
0.125818
0.179925
-5.55684e-08
0.00287463
0.111686
0.169881
-3.65023e-09
0.00402986
0.114528
0.18676
0.00366463
0.116661
0.200121
0.00214405
0.117973
0.209384
-5.02088e-08
0.118605
0.214123
-0.00214415
0.118605
0.214123
-0.00366473
0.117973
0.209384
-0.00402994
0.116661
0.200121
-0.0028747
0.114528
0.18676
0.111686
0.169881
-6.26341e-08
0.00325746
0.0934297
0.154798
-4.68683e-09
0.00454644
0.0951093
0.17133
0.00412558
0.0963086
0.184307
0.00241
0.0970173
0.193251
-5.89778e-08
0.0973526
0.197812
-0.00241011
0.0973526
0.197812
-0.00412568
0.0970173
0.193251
-0.00454653
0.0963086
0.184307
-0.00325754
0.0951093
0.17133
0.0934297
0.154798
-6.86418e-08
0.00358905
0.0734616
0.136226
-5.76701e-09
0.00501656
0.0741735
0.152355
0.00454637
0.0746837
0.164917
0.00265161
0.0749813
0.173525
-6.72713e-08
0.0751221
0.177899
-0.00265174
0.0751221
0.177899
-0.00454649
0.0749813
0.173525
-0.00501666
0.0746837
0.164917
-0.00358914
0.0741735
0.152355
0.0734616
0.136226
-7.35206e-08
0.00401778
0.115268
-6.63327e-09
0.053553
0.00556559
0.131004
0.0536582
0.00500449
0.143151
0.0537923
0.00290259
0.151426
0.0538883
-7.39159e-08
0.155616
0.0539329
-0.00290273
0.155616
0.0539329
-0.00500462
0.151426
0.0538883
-0.0055657
0.143151
0.0537923
-0.00401787
0.131004
0.0536582
0.115268
-7.56739e-08
0.053553
3.9609e-05
0.0100686
0.0348825
-4.90917e-10
3.55521e-05
0.01111
0.038515
2.99515e-05
0.0119938
0.0415957
1.6597e-05
0.01265
0.0438254
-3.76323e-09
0.0129957
0.0449963
-1.66045e-05
0.0129957
0.0449963
-2.99589e-05
0.01265
0.0438254
-3.55593e-05
0.0119938
0.0415957
-3.96161e-05
0.01111
0.038515
0.0100686
0.0348825
-7.00504e-09
0.00028355
0.0305274
0.0913696
-9.47499e-10
0.000385073
0.0332569
0.100734
0.000344154
0.0355411
0.108612
0.00020075
0.0371884
0.114289
-1.18833e-08
0.0380491
0.117261
-0.000200773
0.0380491
0.117261
-0.000344177
0.0371884
0.114289
-0.000385096
0.0355411
0.108612
-0.000283571
0.0332569
0.100734
0.0305274
0.0913696
-2.00413e-08
0.000605486
0.0515857
0.132112
-1.50487e-09
0.000859135
0.0556167
0.145575
0.000778337
0.0589454
0.1568
0.000456203
0.0612928
0.164845
-2.04201e-08
0.0625088
0.169044
-0.000456243
0.0625088
0.169044
-0.000778376
0.0612928
0.164845
-0.000859172
0.0589454
0.1568
-0.00060552
0.0556167
0.145575
0.0515857
0.132112
-3.22928e-08
0.000975453
0.0675045
0.158528
-2.07184e-09
0.00139986
0.0721149
0.174694
0.00127855
0.075876
0.188042
0.000750859
0.0784766
0.197553
-2.93231e-08
0.0798116
0.2025
-0.000750917
0.0798116
0.2025
-0.00127861
0.0784766
0.197553
-0.00139992
0.075876
0.188042
-0.0009755
0.0721149
0.174694
0.0675045
0.158528
-4.34571e-08
0.00136815
0.076275
0.172629
-2.719e-09
0.00195964
0.0808008
0.190422
0.00179428
0.084444
0.204971
0.001054
0.0869149
0.215277
-3.85882e-08
0.0881706
0.220618
-0.00105408
0.0881706
0.220618
-0.00179436
0.0869149
0.215277
-0.00195971
0.084444
0.204971
-0.00136821
0.0808008
0.190422
0.0762751
0.172629
-5.35071e-08
0.00176302
0.0779164
0.176521
-3.50511e-09
0.00250815
0.0818871
0.195162
0.00229548
0.0850287
0.21026
0.00134767
0.0871166
0.220893
-4.8124e-08
0.088166
0.226384
-0.00134776
0.088166
0.226384
-0.00229557
0.0871166
0.220893
-0.00250823
0.0850287
0.21026
-0.00176309
0.0818872
0.195162
0.0779165
0.176521
-6.22859e-08
0.0021366
0.0735109
0.17215
-4.62672e-09
0.00302099
0.0766625
0.1911
0.00276208
0.0790984
0.20631
0.00162067
0.0806835
0.216958
-5.77089e-08
0.0814712
0.222438
-0.00162079
0.0814712
0.222438
-0.00276219
0.0806835
0.216958
-0.00302108
0.0790984
0.20631
-0.00213668
0.0766625
0.1911
0.0735109
0.17215
-6.96682e-08
0.00247269
0.0646232
0.161213
-6.04396e-09
0.00348807
0.0668583
0.180119
0.00318746
0.0685425
0.195163
0.00186938
0.0696187
0.205634
-6.69364e-08
0.0701486
0.211004
-0.00186951
0.0701486
0.211004
-0.00318759
0.0696187
0.205634
-0.00348818
0.0685425
0.195163
-0.00247278
0.0668583
0.180119
0.0646232
0.161213
-7.54385e-08
0.00278389
0.0529274
0.145138
-7.56868e-09
0.00392542
0.0542814
0.16379
0.00358145
0.0552955
0.178508
0.0020975
0.0559411
0.188687
-7.50764e-08
0.0562586
0.193887
-0.00209764
0.0562586
0.193887
-0.00358158
0.0559411
0.188687
-0.00392554
0.0552955
0.178508
-0.00278398
0.0542814
0.16379
0.0529275
0.145138
-7.95587e-08
0.00312893
0.125105
-8.87185e-09
0.0399609
0.00437726
0.143422
0.040615
0.00397101
0.157714
0.0411391
0.00231621
0.167531
0.0414911
-8.07367e-08
0.172526
0.041665
-0.00231637
0.172526
0.041665
-0.00397116
0.167531
0.0414911
-0.00437738
0.157714
0.0411391
-0.00312902
0.143422
0.040615
0.125105
-8.0297e-08
0.0399609
-3.18633e-05
0.00410997
0.0308044
-4.84939e-10
-4.55004e-05
0.00452583
0.0340028
-3.66828e-05
0.00487873
0.0367081
-2.02228e-05
0.00514112
0.0386678
-3.44089e-09
0.00527858
0.0396975
2.02159e-05
0.00527858
0.0396975
3.6676e-05
0.00514113
0.0386678
4.54937e-05
0.00487874
0.0367081
3.18566e-05
0.00452583
0.0340028
0.00410998
0.0308044
-6.43237e-09
1.01758e-05
0.0127612
0.0827082
-1.05917e-09
1.756e-05
0.0139832
0.091269
2.19954e-05
0.0150188
0.0984674
1.56856e-05
0.0157736
0.103662
-1.10776e-08
0.0161695
0.106386
-1.57076e-05
0.0161695
0.106386
-2.20169e-05
0.0157736
0.103662
-1.758e-05
0.0150188
0.0984674
-1.01942e-05
0.0139832
0.091269
0.0127612
0.0827082
-1.85072e-08
0.000124575
0.0227141
0.122034
-1.68208e-09
0.000188893
0.0247434
0.134751
0.000181383
0.0264516
0.145375
0.000110499
0.0276777
0.153012
-1.92561e-08
0.028318
0.157006
-0.000110537
0.028318
0.157006
-0.00018142
0.0276777
0.153012
-0.000188928
0.0264516
0.145375
-0.000124607
0.0247434
0.134751
0.0227141
0.122034
-3.02693e-08
0.000296599
0.0314903
0.149455
-2.31535e-09
0.000442222
0.0340745
0.165217
0.000416867
0.0362288
0.17829
0.000249932
0.0377525
0.187645
-2.78458e-08
0.038543
0.192524
-0.000249987
0.038543
0.192524
-0.000416919
0.0377525
0.187645
-0.000442271
0.0362288
0.17829
-0.000296643
0.0340745
0.165217
0.0314903
0.149455
-4.09306e-08
0.000510464
0.0375561
0.166053
-3.03569e-09
0.000750288
0.0403513
0.183906
0.000701783
0.0426516
0.198597
0.000418031
0.0442539
0.20906
-3.67482e-08
0.0450789
0.214501
-0.000418103
0.0450789
0.2145
-0.000701851
0.0442539
0.20906
-0.000750351
0.0426517
0.198597
-0.00051052
0.0403513
0.183906
0.0375561
0.166053
-5.04359e-08
0.000749986
0.0402552
0.173072
-3.89144e-09
0.00108882
0.0429375
0.192237
0.00101294
0.0451075
0.20788
0.000601057
0.0465945
0.218964
-4.57906e-08
0.0473536
0.22471
-0.000601147
0.0473536
0.22471
-0.00101303
0.0465945
0.218964
-0.0010889
0.0451075
0.20788
-0.000750051
0.0429375
0.192237
0.0402552
0.173072
-5.86033e-08
0.000997725
0.0396067
0.1718
-5.06718e-09
0.00143591
0.0419293
0.19167
0.00133089
0.0437675
0.207755
0.000787743
0.0450058
0.21909
-5.46878e-08
0.0456323
0.224948
-0.00078785
0.0456323
0.224948
-0.00133099
0.0450058
0.21909
-0.001436
0.0437675
0.207755
-0.0009978
0.0419293
0.19167
0.0396068
0.1718
-6.52737e-08
0.00124059
0.0360935
0.163485
-6.57088e-09
0.0017781
0.0379039
0.183606
0.00164381
0.0393033
0.199762
0.000971038
0.0402315
0.211081
-6.29963e-08
0.0406971
0.21691
-0.000971161
0.0406971
0.21691
-0.00164392
0.0402315
0.211081
-0.0017782
0.0393033
0.199762
-0.00124067
0.0379039
0.183606
0.0360935
0.163485
-7.02329e-08
0.00148278
0.0304645
0.149284
-8.29295e-09
0.00211783
0.0317108
0.169349
0.00195028
0.032659
0.18532
0.00114881
0.0332821
0.196438
-6.99901e-08
0.0335932
0.202139
-0.00114895
0.0335932
0.202139
-0.0019504
0.0332821
0.196438
-0.00211793
0.032659
0.18532
-0.00148287
0.0317108
0.169348
0.0304645
0.149284
-7.34885e-08
0.00173912
0.130249
-9.74661e-09
0.0235814
0.00246572
0.150105
0.024301
0.00225767
0.165713
0.0248676
0.00132423
0.176498
0.0252489
-7.43737e-08
0.182004
0.0254395
-0.00132438
0.182004
0.0254395
-0.0022578
0.176498
0.0252489
-0.00246583
0.165713
0.0248676
-0.00173921
0.150105
0.0243011
0.130249
-7.34274e-08
0.0235814
2.12485e-06
0.0013425
0.0294597
-4.05685e-10
-2.73864e-07
0.00149071
0.0325145
1.23045e-07
0.00161962
0.0350881
1.38465e-07
0.00171804
0.0369497
-2.87783e-09
0.00177053
0.0379271
-1.4421e-07
0.00177053
0.0379271
-1.28716e-07
0.00171804
0.0369497
2.68251e-07
0.00161963
0.0350881
-2.13022e-06
0.00149071
0.0325145
0.0013425
0.0294597
-5.48965e-09
3.10539e-05
0.00481728
0.0792024
-8.82587e-10
4.0129e-05
0.00531697
0.0874337
3.6948e-05
0.00574633
0.0943439
2.19107e-05
0.00606531
0.0993301
-9.38035e-09
0.00623432
0.101944
-2.19294e-05
0.00623432
0.101944
-3.69662e-05
0.00606531
0.0993301
-4.01465e-05
0.00574634
0.0943438
-3.10704e-05
0.00531698
0.0874336
0.00481729
0.0792024
-1.59924e-08
8.66266e-05
0.00929422
0.117471
-1.49558e-09
0.000122756
0.0102015
0.12983
0.00011329
0.0109742
0.140156
6.72356e-05
0.0115379
0.147585
-1.6416e-08
0.0118349
0.151472
-6.72681e-05
0.0118349
0.151472
-0.000113321
0.0115379
0.147585
-0.000122786
0.0109742
0.140156
-8.6654e-05
0.0102015
0.12983
0.00929423
0.117471
-2.59915e-08
0.000168592
0.0136572
0.144924
-2.15513e-09
0.000244764
0.0149014
0.160441
0.000227301
0.0159509
0.173331
0.000134977
0.0167052
0.18257
-2.3827e-08
0.0171002
0.187394
-0.000135024
0.0171002
0.187394
-0.000227346
0.0167052
0.18257
-0.000244806
0.0159509
0.173331
-0.00016863
0.0149014
0.160441
0.0136572
0.144924
-3.51384e-08
0.000273962
0.0170676
0.162368
-2.90029e-09
0.000399266
0.0185032
0.180179
0.000371548
0.0197001
0.194875
0.000220586
0.0205479
0.205368
-3.14906e-08
0.0209887
0.210833
-0.000220648
0.0209887
0.210833
-0.000371607
0.0205479
0.205368
-0.000399319
0.0197001
0.194875
-0.000274009
0.0185032
0.180178
0.0170676
0.162368
-4.33185e-08
0.000397314
0.0190241
0.170718
-3.76771e-09
0.000577189
0.0204832
0.190077
0.000536936
0.0216816
0.205939
0.000318529
0.0225179
0.217212
-3.92166e-08
0.0229493
0.223068
-0.000318606
0.0229493
0.223068
-0.000537008
0.0225179
0.217212
-0.000577254
0.0216816
0.205939
-0.00039737
0.0204832
0.190077
0.0190241
0.170718
-5.03123e-08
0.000531109
0.0193512
0.170942
-4.9029e-09
0.000768212
0.0206827
0.191234
0.000713806
0.021756
0.207735
0.000423035
0.0224935
0.219405
-4.67203e-08
0.0228707
0.225449
-0.000423126
0.0228707
0.225449
-0.000713891
0.0224935
0.219405
-0.000768288
0.021756
0.207735
-0.000531172
0.0206827
0.191233
0.0193512
0.170942
-5.59558e-08
0.000668561
0.0181445
0.164024
-6.28164e-09
0.000964178
0.0192373
0.184756
0.00089435
0.0201005
0.201487
0.000529289
0.0206846
0.213255
-5.35983e-08
0.0209809
0.219329
-0.000529393
0.0209809
0.219329
-0.000894446
0.0206847
0.213255
-0.000964262
0.0201005
0.201487
-0.00066863
0.0192374
0.184756
0.0181445
0.164024
-6.00525e-08
0.00080965
0.0156963
0.150923
-7.7819e-09
0.00116216
0.0164941
0.171739
0.00107373
0.0171121
0.188397
0.000633765
0.0175251
0.200037
-5.92323e-08
0.0177331
0.206021
-0.00063388
0.0177331
0.206021
-0.00107383
0.0175251
0.200037
-0.00116225
0.0171122
0.188397
-0.000809723
0.0164941
0.171739
0.0156963
0.150923
-6.26118e-08
0.000949145
0.13257
-9.02678e-09
0.0124265
0.00135444
0.153275
0.0129183
0.00124663
0.169629
0.0133047
0.000733639
0.180969
0.0135668
-6.25731e-08
0.186772
0.0136987
-0.00073376
0.186772
0.0136987
-0.00124674
0.180969
0.0135668
-0.00135453
0.169629
0.0133047
-0.000949218
0.153275
0.0129183
0.13257
-6.23273e-08
0.0124265
-5.61207e-06
0.000584564
0.0288808
-3.41076e-10
-8.36582e-06
0.000643073
0.0318741
-6.6336e-06
0.000692586
0.0343938
-3.65782e-06
0.000730221
0.0362165
-2.21362e-09
0.000750002
0.0371735
3.65308e-06
0.000750003
0.0371735
6.62912e-06
0.000730221
0.0362165
8.36148e-06
0.000692587
0.0343938
5.60762e-06
0.000643075
0.0318741
0.000584565
0.0288808
-4.41131e-09
-9.25949e-07
0.00203651
0.0777514
-7.83293e-10
-2.00699e-06
0.00224349
0.0858343
-7.21998e-07
0.00241987
0.0926153
1.19232e-07
0.00255101
0.0975085
-7.22822e-09
0.00262049
0.100073
-1.32149e-07
0.00262049
0.100073
7.07857e-07
0.00255101
0.0975085
1.99212e-06
0.00241987
0.0926153
9.12774e-07
0.00224349
0.0858343
0.00203651
0.0777514
-1.27983e-08
1.76907e-05
0.00396083
0.115529
-1.3079e-09
2.61581e-05
0.00435582
0.127709
2.56539e-05
0.00469247
0.137884
1.58522e-05
0.0049395
0.145207
-1.3049e-08
0.00507005
0.149039
-1.58784e-05
0.00507005
0.149038
-2.56789e-05
0.0049395
0.145207
-2.61816e-05
0.00469248
0.137884
-1.77124e-05
0.00435582
0.127709
0.00396083
0.115528
-2.08454e-08
5.08947e-05
0.00593572
0.142898
-1.88845e-09
7.57458e-05
0.00650435
0.158268
7.20949e-05
0.00698643
0.17104
4.35191e-05
0.00733586
0.180202
-1.90603e-08
0.00751968
0.184988
-4.35568e-05
0.00751968
0.184988
-7.21309e-05
0.00733586
0.180202
-7.57791e-05
0.00698644
0.17104
-5.09248e-05
0.00650436
0.158268
0.00593573
0.142898
-2.8246e-08
9.74501e-05
0.00758838
0.160618
-2.55257e-09
0.000144327
0.0082752
0.178361
0.000136271
0.00885204
0.193018
8.16822e-05
0.00926492
0.203493
-2.52112e-08
0.00948081
0.208953
-8.17318e-05
0.00948081
0.208953
-0.000136318
0.00926493
0.203493
-0.00014437
0.00885205
0.193018
-9.74881e-05
0.00827521
0.178361
0.00758839
0.160618
-3.48879e-08
0.000155205
0.00865278
0.169498
-3.31388e-09
0.000228268
0.00938144
0.188898
0.000214572
0.00998529
0.20482
0.000128158
0.0104117
0.216152
-3.13713e-08
0.0106331
0.222044
-0.00012822
0.0106331
0.222044
-0.00021463
0.0104117
0.216152
-0.00022832
0.0099853
0.204819
-0.00015525
0.00938145
0.188898
0.00865279
0.169498
-4.05826e-08
0.000220912
0.00899231
0.170382
-4.26284e-09
0.000322952
0.00968487
0.190828
0.000302611
0.010249
0.207492
0.0001803
0.0106417
0.219298
-3.73115e-08
0.0108439
0.225419
-0.000180373
0.010844
0.225419
-0.000302679
0.0106417
0.219298
-0.000323012
0.010249
0.207492
-0.000220963
0.00968488
0.190828
0.00899233
0.170382
-4.51969e-08
0.000291527
0.00859735
0.164127
-5.39018e-09
0.000424418
0.00918913
0.185119
0.00039643
0.00966202
0.202102
0.00023562
0.00998632
0.214072
-4.27155e-08
0.0101519
0.220257
-0.000235703
0.0101519
0.220257
-0.000396507
0.00998633
0.214071
-0.000424485
0.00966204
0.202102
-0.000291582
0.00918915
0.185119
0.00859736
0.164127
-4.85722e-08
0.00036722
0.00756452
0.151589
-6.62903e-09
0.000530962
0.00801609
0.172749
0.000493209
0.00836951
0.189727
0.000292092
0.00860838
0.201616
-4.71128e-08
0.00872938
0.207736
-0.000292184
0.00872938
0.207736
-0.000493293
0.00860838
0.201616
-0.000531034
0.00836952
0.189727
-0.000367278
0.0080161
0.172748
0.00756453
0.151589
-5.07105e-08
0.000443202
0.133617
-7.63409e-09
0.00607429
0.000637039
0.154731
0.00636669
0.00058947
0.171448
0.00659755
0.000348026
0.183064
0.00675507
-4.9737e-08
0.189015
0.00683474
-0.000348122
0.189015
0.00683474
-0.000589558
0.183064
0.00675507
-0.000637113
0.171448
0.00659756
-0.000443261
0.154731
0.0063667
0.133617
-5.06529e-08
0.0060743
-8.46141e-07
0.000189299
0.0286923
-2.72292e-10
-1.64427e-06
0.000209684
0.0316653
-1.19934e-06
0.000227432
0.0341659
-6.42065e-07
0.000241368
0.0359746
-1.72646e-09
0.000248804
0.036924
6.38587e-07
0.000248804
0.036924
1.19592e-06
0.000241368
0.0359746
1.64085e-06
0.000227433
0.0341659
8.42719e-07
0.000209684
0.0316653
0.000189299
0.0286923
-3.31183e-09
1.82326e-06
0.000739576
0.0771993
-6.80491e-10
1.92347e-06
0.000818987
0.0852249
2.08439e-06
0.000887786
0.0919548
1.36491e-06
0.000939853
0.0968107
-5.65533e-09
0.00096765
0.0993559
-1.37621e-06
0.00096765
0.0993559
-2.0954e-06
0.000939854
0.0968107
-1.93386e-06
0.000887788
0.0919548
-1.83301e-06
0.00081899
0.0852249
0.000739579
0.0771993
-9.64761e-09
9.92057e-06
0.00152126
0.114737
-1.12738e-09
1.39082e-05
0.00168137
0.126843
1.31984e-05
0.0018194
0.136953
7.99237e-06
0.00192203
0.14423
-9.96618e-09
0.00197663
0.148038
-8.01213e-06
0.00197664
0.148038
-1.32175e-05
0.00192203
0.14423
-1.39262e-05
0.00181941
0.136953
-9.9372e-06
0.00168137
0.126843
0.00152127
0.114737
-1.58519e-08
2.40994e-05
0.00236636
0.142029
-1.60097e-09
3.50889e-05
0.00260684
0.157331
3.30405e-05
0.0028128
0.170049
1.98172e-05
0.00296387
0.179174
-1.45208e-08
0.00304385
0.183941
-1.98458e-05
0.00304385
0.183941
-3.30679e-05
0.00296387
0.179174
-3.51144e-05
0.00281281
0.170049
-2.41224e-05
0.00260684
0.157331
0.00236637
0.142029
-2.16045e-08
4.44301e-05
0.00311429
0.159826
-2.12654e-09
6.52257e-05
0.00341551
0.177531
6.13277e-05
0.0036711
0.192163
3.66714e-05
0.00385619
0.202626
-1.92144e-08
0.0039536
0.20808
-3.67092e-05
0.0039536
0.20808
-6.13636e-05
0.0038562
0.202626
-6.52585e-05
0.00367111
0.192163
-4.44591e-05
0.00341552
0.177531
0.0031143
0.159826
-2.68049e-08
7.03506e-05
0.00363805
0.168904
-2.72062e-09
0.000103244
0.00396814
0.188313
9.69525e-05
0.00424469
0.204252
5.78729e-05
0.00444231
0.215605
-2.39081e-08
0.00454559
0.22151
-5.79198e-05
0.0045456
0.22151
-9.69966e-05
0.00444232
0.215605
-0.000103283
0.0042447
0.204252
-7.0385e-05
0.00396815
0.188312
0.00363806
0.168904
-3.13026e-08
0.00010067
0.00386012
0.170059
-3.44736e-09
0.000147353
0.00418324
0.190566
0.000138162
0.0044496
0.207296
8.23466e-05
0.00463726
0.219159
-2.84221e-08
0.00473455
0.225312
-8.24022e-05
0.00473456
0.225312
-0.000138214
0.00463726
0.219159
-0.000147399
0.00444961
0.207296
-0.00010071
0.00418325
0.190566
0.00386013
0.170059
-3.4997e-08
0.000134102
0.00375783
0.164095
-4.29107e-09
0.000195718
0.00404186
0.185199
0.000183051
0.00427164
0.202293
0.000108878
0.00443102
0.214352
-3.25217e-08
0.00451291
0.220587
-0.000108941
0.00451292
0.220587
-0.00018311
0.00443103
0.214352
-0.000195769
0.00427165
0.202293
-0.000134145
0.00404187
0.185199
0.00375784
0.164095
-3.77706e-08
0.00017039
0.00335953
0.151817
-5.18714e-09
0.000246923
0.0035828
0.173131
0.000229724
0.00375915
0.190257
0.000136189
0.0038794
0.202261
-3.58693e-08
0.00394061
0.208444
-0.000136258
0.00394062
0.208444
-0.000229788
0.00387941
0.202261
-0.000246978
0.00375915
0.190257
-0.000170435
0.00358281
0.173131
0.00335954
0.151816
-3.96271e-08
0.000205048
0.134033
-5.89861e-09
0.00273902
0.000296142
0.155335
0.00288748
0.00027498
0.172224
0.00300498
0.000162702
0.18397
0.00308553
-3.79398e-08
0.189992
0.00312644
-0.000162775
0.189992
0.00312645
-0.000275047
0.18397
0.00308554
-0.0002962
0.172223
0.00300499
-0.000205094
0.155335
0.00288748
0.134033
-3.99206e-08
0.00273903
-1.3837e-06
7.67327e-05
0.028617
-1.90249e-10
-1.99248e-06
8.42389e-05
0.0315816
-1.60206e-06
9.06669e-05
0.0340748
-8.84829e-07
9.56743e-05
0.0358782
-1.27132e-09
9.83201e-05
0.0368248
8.82293e-07
9.83202e-05
0.0368248
1.59957e-06
9.56746e-05
0.0358782
1.99002e-06
9.06674e-05
0.0340748
1.38126e-06
8.42395e-05
0.0315816
7.67331e-05
0.028617
-2.36646e-09
-1.64744e-06
0.000289139
0.0769885
-4.95289e-10
-2.47887e-06
0.000319381
0.0849906
-1.99356e-06
0.000345526
0.0916994
-1.06224e-06
0.000365359
0.0965401
-4.1542e-09
0.000375936
0.0990773
1.05399e-06
0.000375936
0.0990773
1.98552e-06
0.000365359
0.0965401
2.47114e-06
0.000345528
0.0916994
1.64e-06
0.000319383
0.0849906
0.00028914
0.0769885
-6.96925e-09
7.94485e-07
0.000595857
0.114429
-8.31061e-10
1.0231e-06
0.000659205
0.126503
1.23131e-06
0.000713836
0.136585
8.71e-07
0.000754667
0.143841
-7.31471e-09
0.000776443
0.147638
-8.85473e-07
0.000776443
0.147638
-1.24528e-06
0.000754669
0.143841
-1.03604e-06
0.000713839
0.136585
-8.05741e-07
0.000659208
0.126503
0.000595861
0.114429
-1.13699e-08
5.88941e-06
0.000938865
0.14168
-1.20926e-09
8.70119e-06
0.0010372
0.156951
8.43313e-06
0.00112167
0.169641
5.16451e-06
0.00118403
0.178748
-1.06622e-08
0.00121716
0.183505
-5.18554e-06
0.00121716
0.183505
-8.45326e-06
0.00118403
0.178748
-8.71989e-06
0.00112167
0.169641
-5.90632e-06
0.0010372
0.156951
0.00093887
0.14168
-1.57657e-08
1.3903e-05
0.0012551
0.159496
-1.61675e-09
2.06061e-05
0.00138207
0.17718
1.96133e-05
0.00149027
0.191796
1.18297e-05
0.00156918
0.202248
-1.41133e-08
0.00161088
0.207698
-1.18575e-05
0.00161088
0.207698
-1.96397e-05
0.00156919
0.202248
-2.06303e-05
0.00149027
0.191796
-1.39244e-05
0.00138208
0.17718
0.00125511
0.159496
-1.97356e-08
2.45949e-05
0.00148966
0.168645
-2.06288e-09
3.6369e-05
0.00163275
0.18805
3.44155e-05
0.00175325
0.203991
2.06497e-05
0.00184002
0.215348
-1.75598e-08
0.00188555
0.221256
-2.06841e-05
0.00188556
0.221256
-3.44479e-05
0.00184002
0.215348
-3.63984e-05
0.00175326
0.203991
-2.46203e-05
0.00163276
0.18805
0.00148967
0.168645
-2.31914e-08
3.75283e-05
0.00160464
0.169907
-2.5841e-09
5.53132e-05
0.00174842
0.190433
5.21703e-05
0.00186766
0.207185
3.12112e-05
0.00195231
0.219067
-2.08718e-08
0.00199639
0.225232
-3.1252e-05
0.00199639
0.225232
-5.22085e-05
0.00195232
0.219067
-5.53473e-05
0.00186767
0.207185
-3.75573e-05
0.00174843
0.190433
0.00160465
0.169907
-2.60897e-08
5.2225e-05
0.0015838
0.164064
-3.17041e-09
7.67097e-05
0.00171342
0.185209
7.20924e-05
0.00181897
0.202346
4.30059e-05
0.00189273
0.214441
-2.38894e-08
0.00193078
0.220696
-4.30526e-05
0.00193078
0.220696
-7.21358e-05
0.00189273
0.214441
-7.6748e-05
0.00181898
0.202346
-5.22569e-05
0.00171343
0.185209
0.00158381
0.164064
-2.83498e-08
6.8658e-05
0.00143306
0.151899
-3.78533e-09
9.99876e-05
0.00153763
0.173276
9.33681e-05
0.00162073
0.190462
5.5477e-05
0.00167776
0.202514
-2.63913e-08
0.00170689
0.208724
-5.55284e-05
0.00170689
0.208724
-9.34156e-05
0.00167776
0.202514
-0.000100029
0.00162073
0.190461
-6.8692e-05
0.00153764
0.173275
0.00143307
0.151898
-2.99685e-08
8.46821e-05
0.134201
-4.25745e-09
0.00117997
0.000122931
0.155583
0.00125141
0.000114583
0.172544
0.00130819
6.79497e-05
0.184347
0.00134728
-2.80483e-08
0.190399
0.00136718
-6.80043e-05
0.190399
0.00136718
-0.000114633
0.184347
0.00134728
-0.000122974
0.172544
0.0013082
-8.47171e-05
0.155583
0.00125141
0.134201
-3.05722e-08
0.00117997
-3.96854e-07
1.9696e-05
0.0285977
-1.30543e-10
-6.11222e-07
2.18193e-05
0.03156
-4.91393e-07
2.37629e-05
0.0340509
-2.73034e-07
2.53637e-05
0.0358527
-9.06574e-10
2.62273e-05
0.0367983
2.71227e-07
2.62273e-05
0.0367983
4.89625e-07
2.53639e-05
0.0358526
6.09494e-07
2.37632e-05
0.0340509
3.95153e-07
2.18197e-05
0.03156
1.96963e-05
0.0285977
-1.62179e-09
-5.21985e-07
8.87957e-05
0.0769199
-3.48475e-10
-8.85547e-07
9.8862e-05
0.0849139
-7.41755e-07
0.000107832
0.0916152
-4.07535e-07
0.000114817
0.0964503
-2.95391e-09
0.000118586
0.0989845
4.01676e-07
0.000118586
0.0989845
7.36079e-07
0.000114817
0.0964503
8.80107e-07
0.000107833
0.0916152
5.16765e-07
9.88634e-05
0.0849139
8.87967e-05
0.0769199
-4.82889e-09
3.12915e-07
0.000197754
0.11432
-5.84535e-10
2.65018e-07
0.000220355
0.126382
2.9834e-07
0.000240215
0.136453
2.1181e-07
0.000255325
0.1437
-5.20022e-09
0.000263455
0.147493
-2.22091e-07
0.000263456
0.147493
-3.08241e-07
0.000255326
0.1437
-2.74118e-07
0.000240217
0.136453
-3.20778e-07
0.000220357
0.126381
0.000197757
0.11432
-7.93623e-09
2.18727e-06
0.000326553
0.141549
-8.5691e-10
3.07489e-06
0.000363242
0.156807
2.92435e-06
0.000395212
0.169487
1.77451e-06
0.000419156
0.178585
-7.58012e-09
0.000431974
0.183338
-1.78948e-06
0.000431974
0.183338
-2.93865e-06
0.000419158
0.178585
-3.08814e-06
0.000395215
0.169487
-2.1992e-06
0.000363245
0.156807
0.000326557
0.141549
-1.10974e-08
5.26911e-06
0.00045137
0.159366
-1.14808e-09
7.6678e-06
0.000500384
0.17704
7.24092e-06
0.000542667
0.191649
4.34928e-06
0.000573902
0.202096
-1.00372e-08
0.000590518
0.207544
-4.36903e-06
0.000590518
0.207544
-7.25967e-06
0.000573904
0.202096
-7.68497e-06
0.000542671
0.191649
-5.28431e-06
0.000500389
0.17704
0.000451375
0.159365
-1.40004e-08
9.51387e-06
0.000549758
0.168537
-1.45953e-09
1.39701e-05
0.00060656
0.187939
1.31763e-05
0.00065494
0.20388
7.89155e-06
0.000690184
0.215237
-1.24912e-08
0.000708799
0.221145
-7.91606e-06
0.0007088
0.221145
-1.31994e-05
0.000690187
0.215237
-1.39911e-05
0.000654944
0.20388
-9.53207e-06
0.000606565
0.187939
0.000549764
0.168537
-1.65764e-08
1.47823e-05
0.000604733
0.169837
-1.80986e-09
2.17497e-05
0.000663199
0.190369
2.04936e-05
0.000712211
0.207129
1.22527e-05
0.000747386
0.219018
-1.48568e-08
0.000765808
0.225188
-1.22818e-05
0.000765809
0.225188
-2.05209e-05
0.000747389
0.219018
-2.17741e-05
0.000712216
0.207128
-1.48032e-05
0.000663205
0.190369
0.000604739
0.169837
-1.87969e-08
2.08935e-05
0.000607395
0.16404
-2.19192e-09
3.07022e-05
0.00066128
0.185201
2.88565e-05
0.000705588
0.202354
1.72137e-05
0.000736844
0.214463
-1.70303e-08
0.000753048
0.220726
-1.7247e-05
0.000753048
0.220726
-2.88875e-05
0.000736847
0.214463
-3.07297e-05
0.000705593
0.202354
-2.09166e-05
0.000661285
0.185201
0.0006074
0.16404
-2.06043e-08
2.77737e-05
0.000557876
0.15192
-2.58046e-09
4.04861e-05
0.00060232
0.173322
3.78335e-05
0.000637844
0.190532
2.24904e-05