/*--------------------------------*- C++ -*----------------------------------*\
| =========                 |                                                 |
| \\      /  F ield         | OpenFOAM: The Open Source CFD Toolbox           |
|  \\    /   O peration     | Version:  2106                                  |
|   \\  /    A nd           | Website:  www.openfoam.com                      |
|    \\/     M anipulation  |                                                 |
\*---------------------------------------------------------------------------*/
FoamFile
{
    version     2.0;
    format      ascii;
    arch        "LSB;label=32;scalar=64";
    class       volVectorField;
    location    "0.72";
    object      U;
}
// * * * * * * * * * * * * * * * * * * * * * * * * * * * * * * * * * * * * * //

dimensions      [0 1 -1 0 0 0 0];

internalField   nonuniform List<vector> 
10000
(
(0.0630449 0.0742882 0.347799)
(0.0537697 0.084486 0.362392)
(0.0401561 0.0937076 0.373845)
(0.0249113 0.100139 0.381754)
(0.00844233 0.103464 0.385774)
(-0.00844234 0.103464 0.385774)
(-0.0249113 0.100139 0.381754)
(-0.0401561 0.0937076 0.373845)
(-0.0537698 0.084486 0.362392)
(-0.0630449 0.0742881 0.347799)
(0.17338 0.205697 0.733498)
(0.146355 0.233147 0.753298)
(0.109263 0.257291 0.76805)
(0.067601 0.274003 0.778023)
(0.0228827 0.282623 0.78301)
(-0.0228828 0.282623 0.78301)
(-0.067601 0.274003 0.778023)
(-0.109263 0.257291 0.76805)
(-0.146355 0.233147 0.753298)
(-0.17338 0.205697 0.733498)
(0.224332 0.266375 0.930914)
(0.187245 0.298323 0.946861)
(0.138896 0.32622 0.958009)
(0.0855102 0.345306 0.965367)
(0.0288738 0.355085 0.968977)
(-0.0288739 0.355085 0.968977)
(-0.0855103 0.345306 0.965367)
(-0.138896 0.32622 0.958009)
(-0.187245 0.298323 0.946861)
(-0.224332 0.266374 0.930914)
(0.239453 0.283872 1.03078)
(0.197907 0.313973 1.04137)
(0.145898 0.340311 1.04809)
(0.0894049 0.358126 1.05238)
(0.0301205 0.367196 1.05443)
(-0.0301205 0.367196 1.05443)
(-0.0894049 0.358126 1.05238)
(-0.145898 0.340311 1.04809)
(-0.197907 0.313973 1.04137)
(-0.239454 0.283872 1.03078)
(0.237486 0.281039 1.0795)
(0.194667 0.307227 1.0855)
(0.142755 0.33028 1.08865)
(0.0871274 0.345738 1.09054)
(0.0292966 0.35356 1.09139)
(-0.0292967 0.35356 1.09139)
(-0.0871275 0.345738 1.09054)
(-0.142755 0.33028 1.08865)
(-0.194667 0.307227 1.0855)
(-0.237486 0.281039 1.0795)
(0.226379 0.267409 1.10074)
(0.184159 0.288967 1.10333)
(0.134408 0.308096 1.10399)
(0.0817302 0.320849 1.10424)
(0.0274334 0.327265 1.10429)
(-0.0274335 0.327265 1.10429)
(-0.0817303 0.320849 1.10424)
(-0.134408 0.308096 1.10399)
(-0.184159 0.288966 1.10333)
(-0.22638 0.267409 1.10074)
(0.209905 0.247317 1.10739)
(0.169463 0.264004 1.10767)
(0.123127 0.278959 1.10674)
(0.0746081 0.288911 1.10597)
(0.0250008 0.293895 1.10554)
(-0.0250009 0.293895 1.10554)
(-0.0746083 0.288911 1.10597)
(-0.123127 0.278959 1.10674)
(-0.169463 0.264004 1.10767)
(-0.209906 0.247317 1.10739)
(0.190413 0.223511 1.10669)
(0.152541 0.235372 1.1055)
(0.110364 0.246143 1.10368)
(0.0666563 0.253344 1.10236)
(0.0223008 0.256951 1.10167)
(-0.022301 0.256951 1.10167)
(-0.0666565 0.253344 1.10236)
(-0.110364 0.246143 1.10368)
(-0.152542 0.235372 1.1055)
(-0.190413 0.223511 1.10669)
(0.169448 0.197792 1.10267)
(0.134776 0.205018 1.10058)
(0.0971154 0.211732 1.09835)
(0.0584709 0.216352 1.09679)
(0.0195324 0.218686 1.09599)
(-0.0195326 0.218686 1.09599)
(-0.0584711 0.216352 1.09679)
(-0.0971155 0.211732 1.09835)
(-0.134776 0.205018 1.10058)
(-0.169448 0.197792 1.10267)
(0.14818 0.171823 1.09757)
(0.117377 0.172918 1.09502)
(0.0839924 0.17621 1.09264)
(0.0503833 0.17861 1.09104)
(0.0168009 0.179844 1.09023)
(-0.0168011 0.179844 1.09023)
(-0.0503836 0.17861 1.09104)
(-0.0839926 0.17621 1.09264)
(-0.117377 0.172918 1.09502)
(-0.14818 0.171823 1.09757)
(0.0112824 0.014412 0.268629)
(0.00947869 0.0177283 0.280988)
(0.0071572 0.0203923 0.291109)
(0.0045307 0.0222186 0.298154)
(0.00155017 0.02317 0.30176)
(-0.00155019 0.02317 0.30176)
(-0.00453072 0.0222185 0.298154)
(-0.00715722 0.0203923 0.291109)
(-0.0094787 0.0177283 0.280988)
(-0.0112824 0.014412 0.268629)
(0.0548324 0.0663452 0.634486)
(0.0470838 0.0798215 0.656604)
(0.0360342 0.0913688 0.674341)
(0.0227809 0.0995507 0.686539)
(0.00779579 0.103845 0.692731)
(-0.00779585 0.103845 0.692731)
(-0.022781 0.0995507 0.686539)
(-0.0360343 0.0913688 0.674341)
(-0.0470838 0.0798214 0.656604)
(-0.0548325 0.0663451 0.634486)
(0.0985203 0.117677 0.883387)
(0.0840542 0.139173 0.907395)
(0.0639897 0.157621 0.926226)
(0.040212 0.170641 0.93902)
(0.01372 0.17744 0.945462)
(-0.0137201 0.17744 0.945462)
(-0.0402121 0.170641 0.93902)
(-0.0639898 0.157621 0.926226)
(-0.0840543 0.139173 0.907395)
(-0.0985204 0.117677 0.883387)
(0.134859 0.159896 1.05245)
(0.11408 0.186219 1.07462)
(0.0862899 0.2087 1.09158)
(0.0539184 0.224453 1.10297)
(0.0183443 0.232633 1.10866)
(-0.0183445 0.232633 1.10866)
(-0.0539185 0.224453 1.10297)
(-0.0862901 0.2087 1.09158)
(-0.11408 0.186218 1.07462)
(-0.134859 0.159896 1.05245)
(0.160868 0.18965 1.16636)
(0.134918 0.217716 1.18511)
(0.101412 0.241526 1.19908)
(0.063041 0.25809 1.20833)
(0.021393 0.266644 1.21292)
(-0.0213931 0.266644 1.21292)
(-0.0630412 0.25809 1.20833)
(-0.101412 0.241526 1.19908)
(-0.134918 0.217716 1.18511)
(-0.160868 0.18965 1.16636)
(0.176595 0.207115 1.24195)
(0.146855 0.234421 1.25688)
(0.109719 0.257384 1.26767)
(0.0678795 0.273251 1.27471)
(0.0229801 0.281403 1.27816)
(-0.0229803 0.281403 1.27816)
(-0.0678797 0.273251 1.27471)
(-0.109719 0.257384 1.26767)
(-0.146855 0.234421 1.25688)
(-0.176595 0.207115 1.24195)
(0.18311 0.213649 1.29116)
(0.150972 0.238282 1.30246)
(0.112134 0.258753 1.31035)
(0.0690606 0.272814 1.31542)
(0.0233274 0.280003 1.31788)
(-0.0233277 0.280003 1.31788)
(-0.0690609 0.272814 1.31542)
(-0.112134 0.258753 1.31035)
(-0.150972 0.238282 1.30246)
(-0.18311 0.213649 1.29116)
(0.181766 0.210898 1.32238)
(0.148567 0.231469 1.33056)
(0.109722 0.248288 1.33605)
(0.0672869 0.259785 1.33951)
(0.02268 0.265645 1.34116)
(-0.0226804 0.265645 1.34116)
(-0.0672872 0.259785 1.33951)
(-0.109722 0.248288 1.33605)
(-0.148567 0.231469 1.33056)
(-0.181766 0.210898 1.32238)
(0.174035 0.200552 1.34151)
(0.141069 0.216124 1.34718)
(0.103595 0.228496 1.35082)
(0.0632583 0.23697 1.35303)
(0.0212769 0.241286 1.35407)
(-0.0212773 0.241286 1.35407)
(-0.0632587 0.23697 1.35303)
(-0.103596 0.228496 1.35082)
(-0.14107 0.216124 1.34718)
(-0.174035 0.200552 1.34151)
(0.161497 0.185437 1.3527)
(0.130038 0.193405 1.35651)
(0.0947128 0.200982 1.35877)
(0.0575435 0.206208 1.36007)
(0.0193073 0.208866 1.36066)
(-0.0193077 0.208866 1.36066)
(-0.0575439 0.206207 1.36007)
(-0.0947132 0.200982 1.35877)
(-0.130039 0.193405 1.35651)
(-0.161497 0.185437 1.3527)
(0.00113015 0.00126209 0.158917)
(0.00114145 0.00161175 0.167284)
(0.000889818 0.00202297 0.17427)
(0.000595624 0.00232758 0.179216)
(0.000207548 0.00249638 0.181776)
(-0.000207569 0.00249638 0.181776)
(-0.000595645 0.00232758 0.179216)
(-0.000889839 0.00202296 0.17427)
(-0.00114147 0.00161173 0.167284)
(-0.00113016 0.00126208 0.158917)
(0.0181493 0.0210602 0.44521)
(0.0163218 0.0256933 0.465576)
(0.0127741 0.0300532 0.482301)
(0.00820421 0.0332735 0.494039)
(0.00282699 0.0350034 0.500081)
(-0.00282706 0.0350034 0.500081)
(-0.00820428 0.0332735 0.494039)
(-0.0127742 0.0300532 0.482301)
(-0.0163218 0.0256932 0.465576)
(-0.0181494 0.0210602 0.44521)
(0.0413659 0.0481495 0.690735)
(0.0365341 0.057847 0.718531)
(0.0283827 0.0666924 0.740994)
(0.01808 0.0731602 0.756628)
(0.00620762 0.0766046 0.764635)
(-0.00620774 0.0766045 0.764635)
(-0.0180801 0.0731602 0.756628)
(-0.0283828 0.0666924 0.740994)
(-0.0365342 0.0578469 0.718531)
(-0.041366 0.0481494 0.690735)
(0.0664087 0.0773609 0.894948)
(0.0578829 0.0916379 0.92637)
(0.0446361 0.104411 0.95134)
(0.0282514 0.113653 0.968573)
(0.00967053 0.118539 0.977354)
(-0.0096707 0.118539 0.977354)
(-0.0282516 0.113653 0.968573)
(-0.0446363 0.104411 0.95134)
(-0.0578831 0.0916379 0.92637)
(-0.0664089 0.0773608 0.894948)
(0.0887738 0.103297 1.06131)
(0.0764983 0.120674 1.09354)
(0.0585727 0.135991 1.11872)
(0.0368638 0.146966 1.13596)
(0.0125843 0.152731 1.14469)
(-0.0125845 0.152731 1.14469)
(-0.036864 0.146966 1.13596)
(-0.0585729 0.135991 1.11872)
(-0.0764984 0.120673 1.09354)
(-0.0887739 0.103297 1.06131)
(0.106204 0.12326 1.19475)
(0.0905583 0.141972 1.2259)
(0.0688635 0.158242 1.24982)
(0.0431149 0.169795 1.26605)
(0.0146808 0.175828 1.27424)
(-0.0146811 0.175828 1.27424)
(-0.0431151 0.169795 1.26605)
(-0.0688638 0.158241 1.24982)
(-0.0905586 0.141972 1.2259)
(-0.106204 0.12326 1.19475)
(0.117846 0.136279 1.30045)
(0.0994647 0.154629 1.32935)
(0.0751286 0.170346 1.35118)
(0.046803 0.181418 1.36588)
(0.0158977 0.187168 1.37326)
(-0.0158981 0.187168 1.37326)
(-0.0468034 0.181418 1.36588)
(-0.0751289 0.170346 1.35118)
(-0.099465 0.154629 1.32935)
(-0.117846 0.136279 1.30045)
(0.123577 0.142246 1.38322)
(0.103253 0.158749 1.40928)
(0.0774723 0.172633 1.42867)
(0.0480285 0.182341 1.44162)
(0.0162747 0.187359 1.44809)
(-0.0162751 0.187359 1.44809)
(-0.0480289 0.182341 1.44162)
(-0.0774727 0.172633 1.42867)
(-0.103253 0.158749 1.40928)
(-0.123577 0.142246 1.38322)
(0.123802 0.141605 1.44722)
(0.102421 0.155074 1.47032)
(0.076315 0.166077 1.48725)
(0.0470677 0.173737 1.49844)
(0.0159083 0.17768 1.504)
(-0.0159087 0.17768 1.504)
(-0.0470681 0.173737 1.49844)
(-0.0763154 0.166077 1.48725)
(-0.102421 0.155074 1.47032)
(-0.123802 0.141605 1.44722)
(0.119346 0.136183 1.49583)
(0.0977715 0.144274 1.51647)
(0.0721334 0.151592 1.53103)
(0.0442128 0.156661 1.54052)
(0.0148979 0.159255 1.54519)
(-0.0148984 0.159255 1.54519)
(-0.0442132 0.156661 1.54052)
(-0.0721338 0.151592 1.53103)
(-0.0977719 0.144274 1.51647)
(-0.119346 0.136183 1.49583)
(0.000718286 0.000943409 0.139043)
(0.000561401 0.00118291 0.145906)
(0.000384454 0.00135274 0.151495)
(0.000238406 0.00145325 0.155418)
(7.98291e-05 0.00150355 0.157442)
(-7.98488e-05 0.00150355 0.157442)
(-0.000238425 0.00145324 0.155418)
(-0.000384473 0.00135273 0.151495)
(-0.000561419 0.0011829 0.145906)
(-0.000718301 0.000943396 0.139043)
(0.00708783 0.0084752 0.398678)
(0.00615475 0.0104464 0.416892)
(0.0047329 0.0121522 0.431637)
(0.00301956 0.0133767 0.441957)
(0.00103701 0.0140282 0.447268)
(-0.00103707 0.0140282 0.447268)
(-0.00301962 0.0133767 0.441957)
(-0.00473296 0.0121522 0.431637)
(-0.0061548 0.0104464 0.416892)
(-0.00708788 0.00847516 0.398678)
(0.0173811 0.0205229 0.633704)
(0.0151623 0.0249878 0.660588)
(0.0117344 0.0289062 0.682183)
(0.00747579 0.0317511 0.697235)
(0.00256731 0.0332644 0.70496)
(-0.00256742 0.0332644 0.70496)
(-0.0074759 0.031751 0.697235)
(-0.0117345 0.0289062 0.682183)
(-0.0151624 0.0249877 0.660588)
(-0.0173811 0.0205228 0.633704)
(0.0298179 0.0350086 0.842181)
(0.0259267 0.0421148 0.875026)
(0.0200391 0.0483508 0.90116)
(0.012726 0.0528735 0.919285)
(0.00436419 0.055272 0.928559)
(-0.00436435 0.055272 0.928559)
(-0.0127262 0.0528735 0.919285)
(-0.0200393 0.0483507 0.90116)
(-0.0259269 0.0421148 0.875026)
(-0.0298181 0.0350085 0.842181)
(0.0423335 0.0494809 1.02406)
(0.0365818 0.0587734 1.06042)
(0.0281609 0.0668813 1.08905)
(0.017813 0.0727324 1.10879)
(0.00609708 0.0758223 1.11886)
(-0.00609729 0.0758223 1.11886)
(-0.0178132 0.0727324 1.10879)
(-0.0281611 0.0668813 1.08905)
(-0.036582 0.0587733 1.06042)
(-0.0423336 0.0494809 1.02406)
(0.0534271 0.0621713 1.18051)
(0.0458177 0.0728455 1.21834)
(0.0350847 0.0820721 1.24779)
(0.0220955 0.0886864 1.26799)
(0.00754665 0.0921624 1.27826)
(-0.00754691 0.0921624 1.27826)
(-0.0220957 0.0886864 1.26799)
(-0.0350849 0.0820721 1.24778)
(-0.0458179 0.0728454 1.21834)
(-0.0534273 0.0621712 1.18051)
(0.062108 0.0719334 1.31335)
(0.0528077 0.0830294 1.35102)
(0.0401951 0.0924988 1.38002)
(0.0251965 0.0992366 1.39981)
(0.00858605 0.10276 1.40983)
(-0.00858636 0.10276 1.40983)
(-0.0251968 0.0992366 1.39981)
(-0.0401954 0.0924987 1.38002)
(-0.0528079 0.0830293 1.35102)
(-0.0621082 0.0719333 1.31335)
(0.0677823 0.0780828 1.42464)
(0.0571032 0.0886208 1.46097)
(0.0431853 0.0974665 1.48864)
(0.0269399 0.103709 1.5074)
(0.00915782 0.106957 1.51687)
(-0.00915818 0.106957 1.51687)
(-0.0269402 0.103709 1.5074)
(-0.0431856 0.0974665 1.48864)
(-0.0571035 0.0886207 1.46097)
(-0.0677825 0.0780828 1.42464)
(0.070255 0.0803567 1.51639)
(0.0586219 0.0894526 1.5507)
(0.0440187 0.0968738 1.57651)
(0.0273116 0.102074 1.59387)
(0.00925888 0.104764 1.60258)
(-0.00925928 0.104764 1.60258)
(-0.0273119 0.102074 1.59387)
(-0.0440191 0.0968737 1.57651)
(-0.0586222 0.0894526 1.55069)
(-0.0702553 0.0803566 1.51638)
(0.0697097 0.0795491 1.59029)
(0.0575571 0.0855909 1.62285)
(0.0427796 0.0908423 1.64644)
(0.0263662 0.0944871 1.66209)
(0.00890878 0.0963579 1.66988)
(-0.00890921 0.0963579 1.66988)
(-0.0263666 0.0944871 1.66209)
(-0.0427799 0.0908423 1.64644)
(-0.0575575 0.0855909 1.62285)
(-0.06971 0.0795491 1.59029)
(0.000131062 0.000143319 0.12805)
(0.000121429 0.000187886 0.134446)
(8.97154e-05 0.00023357 0.139645)
(6.13678e-05 0.00026559 0.1433)
(2.1192e-05 0.000283741 0.145187)
(-2.12084e-05 0.00028374 0.145187)
(-6.1384e-05 0.000265586 0.1433)
(-8.9731e-05 0.000233563 0.139645)
(-0.000121444 0.000187877 0.134446)
(-0.000131075 0.000143308 0.12805)
(0.00252446 0.00292004 0.37132)
(0.00225799 0.00362007 0.388713)
(0.0017686 0.00426485 0.402803)
(0.00114305 0.00474459 0.412689)
(0.000394679 0.00500499 0.417784)
(-0.000394733 0.00500499 0.417784)
(-0.0011431 0.00474458 0.412689)
(-0.00176865 0.00426483 0.402803)
(-0.00225804 0.00362004 0.388713)
(-0.0025245 0.00292001 0.37132)
(0.00687637 0.00797728 0.596825)
(0.00610926 0.00977941 0.623219)
(0.00478852 0.011416 0.644487)
(0.00307723 0.0126336 0.659369)
(0.00106094 0.0132898 0.667024)
(-0.00106103 0.0132898 0.667024)
(-0.00307732 0.0126336 0.659368)
(-0.0047886 0.011416 0.644487)
(-0.00610934 0.00977937 0.623219)
(-0.00687644 0.00797724 0.596825)
(0.0126194 0.0146422 0.80304)
(0.0111382 0.0177543 0.83635)
(0.00870489 0.0205543 0.863006)
(0.00557021 0.0226267 0.881593)
(0.00191712 0.0237381 0.891134)
(-0.00191726 0.0237381 0.891134)
(-0.00557035 0.0226267 0.881593)
(-0.00870502 0.0205542 0.863006)
(-0.0111383 0.0177543 0.83635)
(-0.0126195 0.0146422 0.803039)
(0.018873 0.021863 0.989214)
(0.0165373 0.026198 1.0274)
(0.0128667 0.0300621 1.05772)
(0.00819866 0.0329032 1.07877)
(0.00281628 0.0344193 1.08955)
(-0.00281646 0.0344193 1.08955)
(-0.00819883 0.0329032 1.07877)
(-0.0128669 0.030062 1.05772)
(-0.0165375 0.0261979 1.0274)
(-0.0188732 0.021863 0.989213)
(0.0248634 0.0287211 1.15522)
(0.0216134 0.0339693 1.1964)
(0.016725 0.0385973 1.22879)
(0.01061 0.0419747 1.2512)
(0.00363681 0.0437677 1.26264)
(-0.00363704 0.0437677 1.26264)
(-0.0106102 0.0419747 1.2512)
(-0.0167252 0.0385973 1.22879)
(-0.0216136 0.0339693 1.1964)
(-0.0248636 0.0287211 1.15522)
(0.0299721 0.0344922 1.30138)
(0.0258283 0.0402001 1.34386)
(0.0198647 0.0451681 1.37697)
(0.0125425 0.0487642 1.39978)
(0.00428924 0.050663 1.41139)
(-0.00428951 0.050663 1.41139)
(-0.0125427 0.0487642 1.39978)
(-0.0198649 0.0451681 1.37697)
(-0.0258285 0.0402001 1.34386)
(-0.0299723 0.0344921 1.30138)
(0.0337436 0.0386427 1.42824)
(0.0288073 0.0442875 1.47062)
(0.022008 0.0491215 1.50336)
(0.0138257 0.0525883 1.52579)
(0.00471611 0.0544083 1.53717)
(-0.00471641 0.0544083 1.53717)
(-0.013826 0.0525883 1.52579)
(-0.0220083 0.0491214 1.50336)
(-0.0288076 0.0442875 1.47062)
(-0.0337438 0.0386426 1.42824)
(0.035933 0.0408661 1.53639)
(0.0303698 0.0459341 1.57773)
(0.0230235 0.050151 1.6093)
(0.0143791 0.0531454 1.63075)
(0.00489031 0.0547062 1.64158)
(-0.00489065 0.0547062 1.64158)
(-0.0143794 0.0531454 1.63075)
(-0.0230238 0.050151 1.6093)
(-0.0303701 0.045934 1.57773)
(-0.0359333 0.0408661 1.53639)
(0.0365127 0.0414716 1.62626)
(0.030483 0.0450516 1.6667)
(0.0228519 0.0481489 1.69642)
(0.0141667 0.0503168 1.71633)
(0.00480027 0.0514357 1.7263)
(-0.00480062 0.0514357 1.7263)
(-0.014167 0.0503168 1.71633)
(-0.0228522 0.0481489 1.69642)
(-0.0304833 0.0450516 1.6667)
(-0.036513 0.0414716 1.62626)
(7.99071e-05 0.000107881 0.125077)
(5.59152e-05 0.000136859 0.131273)
(3.42536e-05 0.000153631 0.136279)
(2.09359e-05 0.00016191 0.139792)
(6.79633e-06 0.000165867 0.141604)
(-6.80943e-06 0.000165866 0.141604)
(-2.09491e-05 0.000161906 0.139792)
(-3.42657e-05 0.000153626 0.136279)
(-5.59271e-05 0.000136852 0.131273)
(-7.99176e-05 0.000107872 0.125077)
(0.00104226 0.00124482 0.362805)
(0.000895166 0.001544 0.379751)
(0.000684518 0.00179577 0.393421)
(0.000437105 0.00197646 0.403003)
(0.000150025 0.00207308 0.407938)
(-0.000150067 0.00207308 0.407938)
(-0.000437148 0.00197645 0.403003)
(-0.000684558 0.00179575 0.393421)
(-0.000895204 0.00154399 0.379751)
(-0.00104229 0.00124479 0.362805)
(0.0028724 0.00338125 0.584385)
(0.00250838 0.00415906 0.610347)
(0.00194744 0.00483767 0.631215)
(0.00124594 0.00533575 0.645814)
(0.000428688 0.0056029 0.653325)
(-0.000428763 0.00560289 0.653325)
(-0.00124601 0.00533574 0.645814)
(-0.00194751 0.00483766 0.631215)
(-0.00250844 0.00415903 0.610347)
(-0.00287246 0.00338121 0.584385)
(0.00538396 0.00629844 0.789072)
(0.00471491 0.00767849 0.822271)
(0.00367187 0.0088947 0.848818)
(0.0023471 0.00979094 0.867345)
(0.000807513 0.0102711 0.876862)
(-0.000807622 0.0102711 0.876862)
(-0.00234721 0.00979092 0.867344)
(-0.00367197 0.00889468 0.848817)
(-0.00471501 0.00767845 0.822271)
(-0.00538405 0.0062984 0.789072)
(0.00825053 0.00960727 0.976359)
(0.00720901 0.0115916 1.01502)
(0.00560723 0.0133407 1.04573)
(0.00357577 0.014627 1.06711)
(0.00122896 0.0153142 1.07807)
(-0.0012291 0.0153142 1.07807)
(-0.00357591 0.014627 1.06711)
(-0.00560736 0.0133407 1.04573)
(-0.00720914 0.0115915 1.01502)
(-0.00825064 0.00960722 0.976359)
(0.0111397 0.0129141 1.14597)
(0.00968525 0.0153947 1.18836)
(0.00750691 0.0175695 1.2218)
(0.00477138 0.0191608 1.245)
(0.00163726 0.0200078 1.25687)
(-0.00163744 0.0200077 1.25687)
(-0.00477156 0.0191608 1.245)
(-0.00750708 0.0175695 1.2218)
(-0.0096854 0.0153947 1.18836)
(-0.0111398 0.0129141 1.14597)
(0.0137446 0.0158593 1.29781)
(0.011869 0.0186419 1.34231)
(0.00915405 0.0210578 1.37716)
(0.00579484 0.0228136 1.40124)
(0.00198446 0.0237435 1.41353)
(-0.00198468 0.0237435 1.41353)
(-0.00579505 0.0228136 1.40124)
(-0.00915425 0.0210578 1.37716)
(-0.0118692 0.0186419 1.34231)
(-0.0137447 0.0158592 1.29781)
(0.0158065 0.0181378 1.43187)
(0.0135388 0.020973 1.47705)
(0.0103793 0.0234005 1.51215)
(0.00653969 0.0251494 1.5363)
(0.0022342 0.0260704 1.54858)
(-0.00223445 0.0260704 1.54858)
(-0.00653992 0.0251494 1.5363)
(-0.0103795 0.0234005 1.51215)
(-0.013539 0.020973 1.47705)
(-0.0158066 0.0181378 1.43187)
(0.0171548 0.0195369 1.54808)
(0.0145572 0.02216 1.5929)
(0.0110777 0.0243465 1.62736)
(0.00693964 0.0259053 1.65088)
(0.00236386 0.0267201 1.66278)
(-0.00236412 0.0267201 1.66278)
(-0.0069399 0.0259053 1.65088)
(-0.011078 0.0243465 1.62736)
(-0.0145574 0.02216 1.5929)
(-0.017155 0.0195369 1.54808)
(0.0177256 0.0201563 1.64617)
(0.0148571 0.022092 1.69074)
(0.0111812 0.0237519 1.72371)
(0.00695224 0.0249171 1.7459)
(0.00235923 0.0255199 1.75705)
(-0.00235951 0.0255199 1.75705)
(-0.00695252 0.0249172 1.7459)
(-0.0111814 0.0237519 1.72371)
(-0.0148574 0.0220919 1.69074)
(-0.0177258 0.0201562 1.64617)
(1.21457e-05 1.4948e-05 0.123578)
(8.23832e-06 2.04574e-05 0.129707)
(4.59224e-06 2.40697e-05 0.134655)
(3.38674e-06 2.6136e-05 0.138129)
(1.13392e-06 2.73355e-05 0.13992)
(-1.14382e-06 2.73347e-05 0.13992)
(-3.39651e-06 2.61338e-05 0.138129)
(-4.60163e-06 2.40661e-05 0.134655)
(-8.24741e-06 2.04521e-05 0.129707)
(-1.21536e-05 1.49415e-05 0.123578)
(0.00036057 0.000421352 0.35857)
(0.000314737 0.000526003 0.375346)
(0.00024375 0.000617291 0.388871)
(0.000157339 0.000684739 0.398355)
(5.42564e-05 0.000721389 0.40324)
(-5.42889e-05 0.000721387 0.40324)
(-0.000157371 0.000684733 0.398355)
(-0.00024378 0.000617281 0.388871)
(-0.000314766 0.000525989 0.375346)
(-0.000360595 0.000421334 0.35857)
(0.00107744 0.00125369 0.578056)
(0.000950257 0.00155073 0.603832)
(0.000743804 0.00181496 0.624547)
(0.000478826 0.0020123 0.639048)
(0.00016522 0.00211912 0.646509)
(-0.000165277 0.00211912 0.646509)
(-0.000478882 0.00201229 0.639047)
(-0.000743858 0.00181494 0.624547)
(-0.000950307 0.00155071 0.603832)
(-0.00107748 0.00125366 0.578056)
(0.00211313 0.00245232 0.781618)
(0.00186576 0.00300671 0.814737)
(0.00146307 0.00350216 0.841232)
(0.000939927 0.00387229 0.85974)
(0.000324159 0.00407208 0.869252)
(-0.000324242 0.00407208 0.869252)
(-0.000940009 0.00387228 0.85974)
(-0.00146315 0.00350214 0.841232)
(-0.00186583 0.00300668 0.814737)
(-0.0021132 0.00245229 0.781618)
(0.0033467 0.00387221 0.968921)
(0.0029472 0.00470014 1.00773)
(0.00230757 0.00543887 1.0386)
(0.00147859 0.00598887 1.06012)
(0.00050936 0.00628475 1.07115)
(-0.00050947 0.00628475 1.07115)
(-0.00147869 0.00598885 1.06012)
(-0.00230767 0.00543885 1.0386)
(-0.00294729 0.00470011 1.00773)
(-0.00334679 0.00387218 0.96892)
(0.00464093 0.00535041 1.13971)
(0.00406708 0.00641853 1.18258)
(0.00317337 0.00736601 1.21647)
(0.00202661 0.00806754 1.24002)
(0.000697045 0.00844341 1.25208)
(-0.000697182 0.00844341 1.25208)
(-0.00202675 0.00806753 1.24002)
(-0.00317349 0.007366 1.21647)
(-0.00406719 0.0064185 1.18258)
(-0.00464104 0.00535037 1.13971)
(0.00585751 0.00672428 1.29378)
(0.00509953 0.0079558 1.33916)
(0.00395961 0.00903782 1.37478)
(0.0025186 0.0098332 1.39945)
(0.000864537 0.0102573 1.41206)
(-0.0008647 0.0102572 1.41206)
(-0.00251876 0.00983319 1.39945)
(-0.00395976 0.0090378 1.37478)
(-0.00509967 0.00795578 1.33916)
(-0.00585764 0.00672424 1.29378)
(0.00687024 0.00784489 1.43093)
(0.00593382 0.00913125 1.47738)
(0.0045797 0.0102462 1.51359)
(0.00289918 0.0110581 1.53856)
(0.000992761 0.0114883 1.55129)
(-0.000992947 0.0114883 1.55129)
(-0.00289936 0.0110581 1.53856)
(-0.00457987 0.0102462 1.51359)
(-0.00593398 0.00913123 1.47738)
(-0.00687038 0.00784486 1.43093)
(0.00758778 0.00859971 1.55081)
(0.00649198 0.00981898 1.59728)
(0.0049721 0.0108472 1.63314)
(0.00312869 0.0115868 1.65767)
(0.00106804 0.0119753 1.67011)
(-0.00106825 0.0119753 1.67011)
(-0.00312889 0.0115868 1.65767)
(-0.00497229 0.0108472 1.63314)
(-0.00649215 0.00981897 1.59728)
(-0.00758794 0.00859969 1.55081)
(0.0079639 0.00902133 1.6528)
(0.00672311 0.00995248 1.69939)
(0.00508933 0.0107496 1.73399)
(0.00317706 0.0113124 1.75734)
(0.0010802 0.0116047 1.76908)
(-0.00108042 0.0116047 1.76908)
(-0.00317727 0.0113124 1.75734)
(-0.00508953 0.0107496 1.73399)
(-0.0067233 0.00995247 1.69939)
(-0.00796406 0.00902133 1.6528)
(7.68936e-06 1.22752e-05 0.123185)
(3.14235e-06 1.60188e-05 0.129287)
(5.67778e-07 1.71153e-05 0.134208)
(1.02581e-07 1.71236e-05 0.137663)
(-4.87047e-08 1.70231e-05 0.139443)
(4.14279e-08 1.70226e-05 0.139443)
(-1.09722e-07 1.7122e-05 0.137663)
(-5.7462e-07 1.71126e-05 0.134208)
(-3.14903e-06 1.6015e-05 0.129287)
(-7.69501e-06 1.22704e-05 0.123185)
(0.000137807 0.000167567 0.357284)
(0.000114111 0.000209545 0.373982)
(8.54549e-05 0.000242545 0.387433)
(5.41914e-05 0.000265756 0.396864)
(1.85234e-05 0.000278094 0.401721)
(-1.85472e-05 0.000278092 0.401721)
(-5.42146e-05 0.000265751 0.396864)
(-8.54772e-05 0.000242538 0.387433)
(-0.000114132 0.000209534 0.373982)
(-0.000137825 0.000167554 0.357284)
(0.00041478 0.000490966 0.575989)
(0.000358024 0.000609189 0.601666)
(0.000276628 0.000709854 0.62229)
(0.000176888 0.000783758 0.636726)
(6.08407e-05 0.000823464 0.644154)
(-6.08826e-05 0.000823462 0.644154)
(-0.000176929 0.000783751 0.636726)
(-0.000276667 0.000709843 0.62229)
(-0.000358061 0.000609173 0.601666)
(-0.000414812 0.000490947 0.575989)
(0.000825835 0.000967309 0.779069)
(0.000721578 0.00119112 0.81212)
(0.000562549 0.00138667 0.838553)
(0.000360425 0.00153175 0.857019)
(0.00012415 0.00160986 0.86651)
(-0.000124211 0.00160986 0.86651)
(-0.000360485 0.00153174 0.857019)
(-0.000562606 0.00138666 0.838553)
(-0.000721631 0.0011911 0.81212)
(-0.000825881 0.000967286 0.779069)
(0.00133096 0.00154876 0.96631)
(0.00116621 0.00188968 1.00514)
(0.00091102 0.00219006 1.03603)
(0.000583349 0.00241321 1.05756)
(0.000200911 0.00253321 1.06861)
(-0.000200991 0.00253321 1.06861)
(-0.000583428 0.0024132 1.05756)
(-0.000911095 0.00219004 1.03603)
(-0.00116628 0.00188966 1.00514)
(-0.00133102 0.00154873 0.96631)
(0.0018783 0.00217386 1.13751)
(0.00164291 0.00262301 1.18055)
(0.00128156 0.00301859 1.21458)
(0.00081886 0.00331155 1.23824)
(0.000281735 0.00346866 1.25036)
(-0.000281836 0.00346865 1.25036)
(-0.000818958 0.00331155 1.23824)
(-0.00128165 0.00301857 1.21458)
(-0.001643 0.00262299 1.18055)
(-0.00187838 0.00217384 1.13751)
(0.00241025 0.00277487 1.29247)
(0.00209841 0.00330355 1.33819)
(0.00163093 0.00376625 1.3741)
(0.00103865 0.00410692 1.39899)
(0.000356765 0.00428881 1.41173)
(-0.000356884 0.00428881 1.41173)
(-0.00103877 0.00410691 1.39899)
(-0.00163104 0.00376624 1.3741)
(-0.00209851 0.00330353 1.33818)
(-0.00241034 0.00277484 1.29247)
(0.00287005 0.00328459 1.43092)
(0.002482 0.00384802 1.4779)
(0.00191891 0.00433558 1.51456)
(0.00121675 0.00469139 1.53988)
(0.000417003 0.00488025 1.55278)
(-0.000417139 0.00488024 1.55278)
(-0.00121689 0.00469139 1.53988)
(-0.00191903 0.00433557 1.51456)
(-0.00248212 0.003848 1.4779)
(-0.00287015 0.00328457 1.43092)
(0.00321299 0.00364765 1.5524)
(0.00275458 0.00419254 1.59958)
(0.00211421 0.00465212 1.63606)
(0.0013328 0.00498338 1.66104)
(0.000455393 0.00515769 1.67372)
(-0.000455544 0.00515769 1.67372)
(-0.00133294 0.00498338 1.66104)
(-0.00211435 0.00465212 1.63606)
(-0.00275471 0.00419253 1.59958)
(-0.00321311 0.00364763 1.5524)
(0.00341264 0.00387134 1.65614)
(0.00288733 0.00429871 1.70364)
(0.00219087 0.00466295 1.73899)
(0.00137023 0.00492062 1.76286)
(0.000466302 0.00505459 1.77488)
(-0.000466463 0.00505459 1.77488)
(-0.00137039 0.00492062 1.76286)
(-0.00219102 0.00466294 1.73899)
(-0.00288747 0.00429871 1.70364)
(-0.00341276 0.00387133 1.65614)
(-4.85591e-07 1.32689e-07 0.12301)
(-1.51189e-06 6.08285e-07 0.129104)
(-1.69379e-06 4.24531e-07 0.134017)
(-1.1039e-06 1.03728e-07 0.137466)
(-3.99786e-07 -7.86827e-08 0.139244)
(3.94598e-07 -7.90775e-08 0.139244)
(1.09883e-06 1.0255e-07 0.137466)
(1.68897e-06 4.22622e-07 0.134017)
(1.50722e-06 6.05602e-07 0.129104)
(4.8169e-07 1.29414e-07 0.12301)
(3.85294e-05 4.63952e-05 0.356722)
(3.16165e-05 5.89808e-05 0.373392)
(2.36464e-05 6.89079e-05 0.386818)
(1.50949e-05 7.60353e-05 0.396231)
(5.16768e-06 7.9876e-05 0.401079)
(-5.18457e-06 7.98749e-05 0.401079)
(-1.51114e-05 7.6032e-05 0.396231)
(-2.3662e-05 6.89026e-05 0.386818)
(-3.16314e-05 5.89734e-05 0.373392)
(-3.85419e-05 4.63861e-05 0.356722)
(0.000132584 0.000155691 0.575073)
(0.000114757 0.000195296 0.600711)
(8.90877e-05 0.000229336 0.621299)
(5.72473e-05 0.000254717 0.635711)
(1.97302e-05 0.000268468 0.643127)
(-1.97599e-05 0.000268466 0.643127)
(-5.72763e-05 0.000254712 0.635711)
(-8.91152e-05 0.000229328 0.621299)
(-0.000114783 0.000195284 0.600711)
(-0.000132607 0.000155678 0.575073)
(0.000281157 0.000327148 0.777901)
(0.000246903 0.00040653 0.810919)
(0.000193554 0.000476526 0.837325)
(0.000124569 0.000529131 0.855774)
(4.29961e-05 0.00055765 0.865257)
(-4.30395e-05 0.000557648 0.865256)
(-0.000124611 0.000529125 0.855774)
(-0.000193594 0.000476516 0.837325)
(-0.00024694 0.000406515 0.810919)
(-0.00028119 0.000327132 0.777901)
(0.000471941 0.000545938 0.965049)
(0.000416015 0.000671653 1.00388)
(0.000326891 0.000783428 1.03477)
(0.000210246 0.000867435 1.0563)
(7.25614e-05 0.000912902 1.06736)
(-7.26188e-05 0.000912899 1.06736)
(-0.000210302 0.000867428 1.0563)
(-0.000326944 0.000783417 1.03477)
(-0.000416064 0.000671638 1.00388)
(-0.000471984 0.00054592 0.965049)
(0.000686326 0.000789967 1.13635)
(0.000604293 0.000960643 1.17943)
(0.000474248 0.00111234 1.21351)
(0.000304376 0.00122592 1.23721)
(0.000104945 0.0012872 1.24936)
(-0.000105016 0.0012872 1.24936)
(-0.000304446 0.00122592 1.23721)
(-0.000474315 0.00111233 1.21351)
(-0.000604355 0.000960627 1.17943)
(-0.000686381 0.000789948 1.13635)
(0.000901858 0.0010328 1.2916)
(0.000790702 0.00123874 1.33744)
(0.000618355 0.00142067 1.37346)
(0.000395553 0.001556 1.39845)
(0.000136155 0.00162867 1.41123)
(-0.00013624 0.00162867 1.41123)
(-0.000395636 0.00155599 1.39844)
(-0.000618434 0.00142066 1.37346)
(-0.000790775 0.00123873 1.33744)
(-0.000901923 0.00103279 1.2916)
(0.00109511 0.00124674 1.43053)
(0.000953956 0.001471 1.47771)
(0.000742061 0.00166689 1.51456)
(0.000472574 0.00181119 1.54001)
(0.000162292 0.00188818 1.55299)
(-0.00016239 0.00188818 1.55299)
(-0.000472669 0.00181119 1.54001)
(-0.000742152 0.00166688 1.51456)
(-0.00095404 0.00147099 1.47771)
(-0.00109519 0.00124672 1.43053)
(0.00124662 0.00140795 1.55262)
(0.00107645 0.00162928 1.6001)
(0.000831015 0.00181752 1.63683)
(0.000525993 0.00195421 1.662)
(0.000180063 0.00202646 1.67478)
(-0.000180171 0.00202645 1.67478)
(-0.000526098 0.00195421 1.662)
(-0.000831115 0.00181751 1.63683)
(-0.00107654 0.00162927 1.6001)
(-0.00124671 0.00140793 1.55262)
(0.00134344 0.00151802 1.65708)
(0.00114367 0.00169637 1.70496)
(0.00087236 0.00184791 1.74062)
(0.000547544 0.00195563 1.76473)
(0.000186642 0.00201181 1.77686)
(-0.000186757 0.00201181 1.77686)
(-0.000547657 0.00195563 1.76472)
(-0.000872468 0.00184791 1.74062)
(-0.00114377 0.00169636 1.70496)
(-0.00134353 0.00151801 1.65708)
(1.01084e-09 7.5942e-07 0.122983)
(-8.50726e-07 1.13782e-06 0.129074)
(-1.05382e-06 9.65686e-07 0.133984)
(-7.6579e-07 6.73793e-07 0.13743)
(-2.85006e-07 4.87129e-07 0.139207)
(2.814e-07 4.86871e-07 0.139207)
(7.62258e-07 6.72949e-07 0.13743)
(1.05059e-06 9.64357e-07 0.133984)
(8.47659e-07 1.13604e-06 0.129074)
(-3.6357e-09 7.57263e-07 0.122983)
(1.08121e-05 1.42707e-05 0.356593)
(7.57231e-06 1.83994e-05 0.373251)
(5.00586e-06 2.09997e-05 0.386666)
(2.98292e-06 2.26328e-05 0.39607)
(9.80728e-07 2.34562e-05 0.400914)
(-9.92403e-07 2.34556e-05 0.400914)
(-2.99432e-06 2.26304e-05 0.39607)
(-5.01638e-06 2.09959e-05 0.386666)
(-7.5822e-06 1.83945e-05 0.373251)
(-1.08205e-05 1.42648e-05 0.356593)
(4.02986e-05 4.88689e-05 0.574828)