/*--------------------------------*- C++ -*----------------------------------*\
| =========                 |                                                 |
| \\      /  F ield         | OpenFOAM: The Open Source CFD Toolbox           |
|  \\    /   O peration     | Version:  2106                                  |
|   \\  /    A nd           | Website:  www.openfoam.com                      |
|    \\/     M anipulation  |                                                 |
\*---------------------------------------------------------------------------*/
FoamFile
{
    version     2.0;
    format      ascii;
    arch        "LSB;label=32;scalar=64";
    class       surfaceScalarField;
    location    "0.5";
    object      phi;
}
// * * * * * * * * * * * * * * * * * * * * * * * * * * * * * * * * * * * * * //

dimensions      [0 3 -1 0 0 0 0];

oriented        oriented;

internalField   nonuniform List<scalar> 
29100
(
0.00118774
0.151198
0.081442
-4.03791e-10
0.00146167
0.156097
0.0894998
0.00125431
0.159531
0.096231
0.000714334
0.161818
0.101049
-2.45427e-09
0.162966
0.103558
-0.000714339
0.162966
0.103558
-0.00125432
0.161818
0.101049
-0.00146168
0.159531
0.096231
-0.00118775
0.156097
0.0894998
0.151198
0.081442
-6.19965e-09
0.00237704
0.209258
0.156462
-7.98909e-10
0.0033018
0.213852
0.170073
0.00294485
0.216927
0.181203
0.00170353
0.218845
0.189073
-6.66774e-09
0.219785
0.19314
-0.00170354
0.219785
0.19314
-0.00294487
0.218845
0.189073
-0.00330182
0.216927
0.181203
-0.00237706
0.213852
0.170073
0.209258
0.156462
-1.57901e-08
0.00303078
0.220325
0.185874
-1.22024e-09
0.00428667
0.223239
0.200993
0.00384774
0.225133
0.213163
0.00222849
0.226162
0.221693
-1.08134e-08
0.226639
0.226077
-0.00222851
0.226639
0.226077
-0.00384777
0.226162
0.221693
-0.00428669
0.225133
0.213163
-0.00303081
0.223239
0.200993
0.220325
0.185874
-2.38438e-08
0.00345935
0.206901
0.193008
-1.58997e-09
0.00482597
0.208128
0.208262
0.0043226
0.208867
0.220387
0.00249898
0.209085
0.228825
-1.50622e-08
0.209145
0.233143
-0.00249901
0.209145
0.233143
-0.00432263
0.209085
0.228825
-0.004826
0.208867
0.220387
-0.00345938
0.208128
0.208262
0.206901
0.193008
-3.08111e-08
0.00368665
0.181745
0.187585
-1.92875e-09
0.00507319
0.181675
0.202467
0.00453151
0.181538
0.214177
0.00261626
0.18118
0.222277
-1.97578e-08
0.180949
0.226409
-0.0026163
0.180949
0.226409
-0.00453155
0.18118
0.222277
-0.00507323
0.181537
0.214177
-0.00368669
0.181675
0.202467
0.181745
0.187585
-3.71554e-08
0.00376822
0.152189
0.174975
-2.27134e-09
0.00513388
0.151261
0.189331
0.00457596
0.150554
0.200534
0.00264034
0.14986
0.208244
-2.52141e-08
0.149467
0.212166
-0.00264039
0.149467
0.212166
-0.00457601
0.14986
0.208244
-0.00513392
0.150554
0.200534
-0.00376826
0.151261
0.189331
0.152189
0.174975
-4.31466e-08
0.00377208
0.122342
0.158334
-2.67562e-09
0.0051026
0.120933
0.172163
0.00454093
0.119913
0.182883
0.00261987
0.119077
0.190225
-3.1702e-08
0.118626
0.193951
-0.00261994
0.118626
0.193951
-0.00454099
0.119077
0.190225
-0.00510265
0.119913
0.182883
-0.00377213
0.120933
0.172163
0.122342
0.158334
-4.8998e-08
0.00373309
0.0944305
0.139509
-3.19283e-09
0.00504209
0.0928043
0.152867
0.00448674
0.0916728
0.163165
0.00258973
0.0908421
0.170185
-3.92965e-08
0.0904125
0.17374
-0.00258981
0.0904125
0.17374
-0.00448681
0.0908421
0.170185
-0.00504216
0.0916728
0.163165
-0.00373315
0.0928042
0.152867
0.0944305
0.139509
-5.47737e-08
0.00369646
0.0695705
0.119566
-3.86655e-09
0.00501732
0.0678949
0.132519
0.00446612
0.0668258
0.142454
0.00257702
0.0661181
0.149198
-4.77004e-08
0.0657676
0.152606
-0.00257711
0.0657676
0.152606
-0.0044662
0.0661181
0.149198
-0.0050174
0.0668258
0.142454
-0.00369653
0.0678949
0.132519
0.0695705
0.119566
-6.01732e-08
0.0039132
0.0991149
-5.19321e-09
0.0480169
0.00520197
0.111724
0.0466951
0.00457382
0.121345
0.045853
0.00261913
0.127848
0.0453424
-5.61683e-08
0.131125
0.0450919
-0.00261924
0.131125
0.0450919
-0.00457392
0.127848
0.0453424
-0.00520205
0.121345
0.045853
-0.00391328
0.111724
0.0466951
0.0991149
-6.47576e-08
0.0480169
-0.000241885
0.0366609
0.045023
-5.07662e-10
-0.000243944
0.0398452
0.0496566
-0.000171542
0.0425363
0.0536223
-8.54515e-05
0.0444605
0.0565024
-3.98414e-09
0.0454558
0.0580168
8.54434e-05
0.0454558
0.0580168
0.000171534
0.0444605
0.0565024
0.000243935
0.0425363
0.0536223
0.000241876
0.0398452
0.0496566
0.0366609
0.045023
-9.33108e-09
6.32098e-05
0.0808917
0.112168
-1.0819e-09
0.000251683
0.0866876
0.123042
0.000301429
0.0915076
0.132182
0.000202085
0.0948841
0.138749
-1.20791e-08
0.0966183
0.14218
-0.000202109
0.0966183
0.14218
-0.000301453
0.0948841
0.138749
-0.000251708
0.0915076
0.132182
-6.32349e-05
0.0866876
0.123042
0.0808917
0.112168
-2.5393e-08
0.000612768
0.112334
0.153818
-1.71855e-09
0.00103078
0.119032
0.16823
0.00100884
0.124529
0.180164
0.00061664
0.128304
0.188665
-2.01993e-08
0.130228
0.193084
-0.00061668
0.130228
0.193084
-0.00100888
0.128304
0.188665
-0.00103083
0.124529
0.180164
-0.000612808
0.119032
0.16823
0.112334
0.153818
-3.98702e-08
0.00123066
0.128692
0.17542
-2.35973e-09
0.00187245
0.13505
0.191603
0.00176188
0.140201
0.204825
0.00105226
0.143664
0.214174
-2.87452e-08
0.145412
0.219011
-0.00105231
0.145412
0.219011
-0.00176194
0.143664
0.214174
-0.00187251
0.140201
0.204825
-0.00123072
0.13505
0.191603
0.128692
0.17542
-5.26233e-08
0.00183343
0.131748
0.182695
-3.07086e-09
0.00267003
0.137081
0.199599
0.00246724
0.141333
0.213248
0.0014573
0.144121
0.222829
-3.79627e-08
0.145512
0.227767
-0.00145738
0.145512
0.227767
-0.00246731
0.144121
0.222829
-0.0026701
0.141333
0.213248
-0.0018335
0.137081
0.199599
0.131748
0.182695
-6.39028e-08
0.00237708
0.12458
0.179766
-3.88424e-09
0.00337706
0.128623
0.196789
0.00308795
0.131769
0.210386
0.00181251
0.133772
0.219868
-4.8076e-08
0.134754
0.224735
-0.0018126
0.134754
0.224735
-0.00308804
0.133772
0.219868
-0.00337715
0.131769
0.210386
-0.00237716
0.128623
0.196789
0.12458
0.179766
-7.38447e-08
0.00283869
0.110443
0.169633
-4.92652e-09
0.00397757
0.113199
0.186448
0.00361595
0.115264
0.199751
0.00211516
0.116528
0.20897
-5.9099e-08
0.117136
0.213685
-0.00211528
0.117136
0.213685
-0.00361606
0.116528
0.20897
-0.00397767
0.115264
0.199751
-0.00283878
0.113199
0.186448
0.110443
0.169633
-8.24779e-08
0.00321276
0.0922677
0.154471
-6.25904e-09
0.00448178
0.0938755
0.170922
0.00406556
0.0950178
0.183827
0.00237446
0.0956877
0.192717
-7.06565e-08
0.0960033
0.197247
-0.0023746
0.0960033
0.197247
-0.00406569
0.0956877
0.192717
-0.00448189
0.0950178
0.183827
-0.00321286
0.0938755
0.170922
0.0922677
0.154471
-8.97008e-08
0.00353544
0.0724549
0.135844
-8.02598e-09
0.00493968
0.0731126
0.151877
0.0044754
0.0735805
0.164356
0.00260973
0.0738497
0.172902
-8.1795e-08
0.0739761
0.177243
-0.00260988
0.0739761
0.177243
-0.00447555
0.0738497
0.172902
-0.00493981
0.0735805
0.164356
-0.00353555
0.0731126
0.151877
0.0724549
0.135844
-9.45669e-08
0.00395641
0.114861
-1.01606e-08
0.0527521
0.00547795
0.130492
0.0528228
0.00492377
0.14255
0.0529296
0.00285503
0.150759
0.0530071
-9.08435e-08
0.154914
0.0530424
-0.00285521
0.154914
0.0530424
-0.00492393
0.150759
0.0530071
-0.00547809
0.14255
0.0529296
-0.00395652
0.130492
0.0528228
0.114861
-9.68021e-08
0.0527521
3.96669e-05
0.00997238
0.035011
-5.20933e-10
3.56279e-05
0.0110038
0.0386568
2.9925e-05
0.0118794
0.0417486
1.65568e-05
0.0125295
0.0439863
-4.15171e-09
0.012872
0.0451614
-1.65652e-05
0.012872
0.0451614
-2.99336e-05
0.0125295
0.0439863
-3.56367e-05
0.0118794
0.0417486
-3.96762e-05
0.0110038
0.0386568
0.00997238
0.035011
-9.6406e-09
0.000281557
0.0302095
0.0916493
-1.21453e-09
0.00038205
0.0329072
0.101039
0.000341205
0.0351649
0.108937
0.00019895
0.036793
0.114628
-1.28847e-08
0.0376435
0.117607
-0.000198976
0.0376435
0.117607
-0.000341232
0.036793
0.114628
-0.000382076
0.0351649
0.108937
-0.000281584
0.0329072
0.101039
0.0302095
0.0916493
-2.69024e-08
0.000599672
0.0509935
0.132434
-2.02331e-09
0.000850346
0.0549673
0.14592
0.000770001
0.0582486
0.15716
0.000451187
0.0605617
0.165216
-2.21123e-08
0.0617598
0.169419
-0.000451232
0.0617598
0.169419
-0.000770046
0.0605617
0.165216
-0.00085039
0.0582486
0.15716
-0.000599715
0.0549673
0.14592
0.0509935
0.132434
-4.23955e-08
0.000964178
0.0666458
0.158804
-2.80017e-09
0.00138292
0.0711768
0.174974
0.00126256
0.0748721
0.188322
0.000741281
0.0774257
0.197831
-3.17758e-08
0.0787361
0.202776
-0.000741345
0.0787361
0.202776
-0.00126262
0.0774257
0.197831
-0.00138298
0.0748721
0.188322
-0.000964236
0.0711768
0.174974
0.0666459
0.158803
-5.60551e-08
0.00134994
0.0752027
0.172788
-3.67867e-09
0.00193252
0.0796342
0.19056
0.00176876
0.0831996
0.205084
0.00103875
0.0856155
0.21537
-4.20269e-08
0.0868427
0.220699
-0.00103884
0.0868427
0.220699
-0.00176884
0.0856155
0.21537
-0.0019326
0.0831996
0.205084
-0.00135002
0.0796342
0.19056
0.0752027
0.172788
-6.79229e-08
0.00173669
0.0767124
0.17652
-4.70273e-09
0.00246928
0.0805836
0.195107
0.00225902
0.0836439
0.210152
0.00132593
0.0856749
0.220742
-5.28981e-08
0.0866949
0.226209
-0.00132603
0.0866949
0.226209
-0.00225912
0.0856749
0.220742
-0.00246937
0.083644
0.210152
-0.00173677
0.0805836
0.195107
0.0767124
0.17652
-7.79207e-08
0.00210136
0.0722712
0.171973
-5.99737e-09
0.00296939
0.0753279
0.190836
0.00271382
0.0776874
0.205963
0.00159196
0.0792196
0.216547
-6.4184e-08
0.0799801
0.221991
-0.00159208
0.0799801
0.221991
-0.00271394
0.0792196
0.216547
-0.0029695
0.0776874
0.205963
-0.00210145
0.075328
0.190835
0.0722712
0.171973
-8.58915e-08
0.00242813
0.0634434
0.160871
-7.69973e-09
0.00342329
0.0655969
0.179658
0.00312711
0.0672163
0.194594
0.00183356
0.0682482
0.204981
-7.52388e-08
0.0687556
0.210305
-0.00183371
0.0687556
0.210305
-0.00312724
0.0682482
0.204981
-0.00342341
0.0672163
0.194594
-0.00242824
0.0655969
0.179658
0.0634434
0.160871
-9.16556e-08
0.00272972
0.0518908
0.144666
-9.93839e-09
0.00384745
0.0531818
0.163175
0.00350926
0.0541469
0.177764
0.00205481
0.0547596
0.187845
-8.47913e-08
0.0550604
0.192993
-0.00205497
0.0550604
0.192993
-0.00350941
0.0547596
0.187845
-0.00384758
0.054147
0.177764
-0.00272982
0.0531818
0.163175
0.0518908
0.144666
-9.4271e-08
0.00306644
0.124558
-1.27501e-08
0.0391273
0.00428754
0.142712
0.0397407
0.00388807
0.156864
0.0402325
0.00226725
0.166577
0.0405626
-9.09985e-08
0.171516
0.0407255
-0.00226742
0.171516
0.0407255
-0.00388823
0.166577
0.0405626
-0.00428767
0.156864
0.0402325
-0.00306655
0.142712
0.0397407
0.124558
-9.35267e-08
0.0391273
-3.17913e-05
0.00404496
0.0309978
-4.6476e-10
-4.54034e-05
0.00445403
0.0342164
-3.66887e-05
0.00480132
0.0369386
-2.02513e-05
0.00505949
0.0389103
-3.65539e-09
0.00519472
0.0399464
2.02439e-05
0.00519472
0.0399464
3.66811e-05
0.00505949
0.0389103
4.53954e-05
0.00480132
0.0369386
3.17829e-05
0.00445403
0.0342164
0.00404496
0.0309978
-8.44773e-09
8.92423e-06
0.0125359
0.0831495
-1.11982e-09
1.55908e-05
0.0137347
0.0917512
1.99697e-05
0.0147508
0.098983
1.44288e-05
0.0154913
0.104201
-1.15733e-08
0.0158795
0.106937
-1.44521e-05
0.0158795
0.106937
-1.99932e-05
0.0154913
0.104201
-1.56139e-05
0.0147508
0.098983
-8.94643e-06
0.0137347
0.0917512
0.0125359
0.0831494
-2.36416e-08
0.000120433
0.0222794
0.12257
-1.92855e-09
0.000182566
0.0242647
0.135328
0.000175318
0.025936
0.145982
0.000106825
0.0271353
0.15364
-2.00106e-08
0.0277614
0.157644
-0.000106865
0.0277614
0.157644
-0.000175358
0.0271354
0.15364
-0.000182606
0.025936
0.145982
-0.000120471
0.0242647
0.135328
0.0222794
0.12257
-3.79402e-08
0.00028819
0.0308415
0.149953
-2.78489e-09
0.000429495
0.0333621
0.165736
0.000404774
0.0354633
0.17882
0.000242659
0.0369487
0.18818
-2.88943e-08
0.0377192
0.193061
-0.000242717
0.0377192
0.193061
-0.000404831
0.0369487
0.18818
-0.00042955
0.0354634
0.17882
-0.000288242
0.0333621
0.165736
0.0308416
0.149953
-5.04085e-08
0.000496437
0.0367263
0.166407
-3.76053e-09
0.000729272
0.0394437
0.184245
0.000681909
0.0416794
0.198916
0.000406122
0.0432355
0.209359
-3.81966e-08
0.0440365
0.214788
-0.000406198
0.0440365
0.214788
-0.000681983
0.0432356
0.209359
-0.000729341
0.0416795
0.198916
-0.000496501
0.0394437
0.184245
0.0367263
0.166406
-6.10447e-08
0.000729195
0.0393049
0.173212
-4.89601e-09
0.00105798
0.0419032
0.192319
0.00098389
0.044004
0.207902
0.000583697
0.0454421
0.218936
-4.78295e-08
0.0461759
0.224654
-0.000583791
0.0461759
0.224654
-0.000983979
0.0454421
0.218936
-0.00105806
0.044004
0.207902
-0.000729269
0.0419032
0.192319
0.0393049
0.173212
-6.97426e-08
0.000969362
0.0386123
0.171696
-6.31497e-09
0.00139419
0.0408532
0.191461
0.00129174
0.042625
0.207444
0.000764409
0.0438171
0.218699
-5.74848e-08
0.0444197
0.224512
-0.000764521
0.0444197
0.224512
-0.00129185
0.0438171
0.218699
-0.00139429
0.0426251
0.207444
-0.000969445
0.0408532
0.191461
0.0386123
0.171696
-7.62838e-08
0.00120418
0.0351344
0.163145
-8.11807e-09
0.00172495
0.0368733
0.183117
0.00159416
0.0382156
0.199134
0.00094153
0.0391044
0.210347
-6.64905e-08
0.0395499
0.216117
-0.00094166
0.0395499
0.216117
-0.00159428
0.0391044
0.210347
-0.00172505
0.0382156
0.199134
-0.00120427
0.0368733
0.183117
0.0351344
0.163145
-8.04376e-08
0.00143798
0.0296125
0.14875
-1.02806e-08
0.00205314
0.0308026
0.16863
0.00189026
0.031707
0.184435
0.00111328
0.0323004
0.195426
-7.36888e-08
0.0325965
0.201059
-0.00111342
0.0325965
0.201059
-0.00189039
0.0323005
0.195426
-0.00205325
0.031707
0.184435
-0.00143807
0.0308026
0.16863
0.0296126
0.14875
-8.14122e-08
0.00168721
0.129594
-1.27036e-08
0.0228897
0.00239087
0.149238
0.0235725
0.00218827
0.164664
0.0241098
0.0012832
0.175311
0.0244713
-7.74913e-08
0.180744
0.0246518
-0.00128335
0.180744
0.0246518
-0.00218841
0.175311
0.0244713
-0.00239098
0.164664
0.0241098
-0.0016873
0.149238
0.0235725
0.129594
-7.90845e-08
0.0228897
2.20652e-06
0.00129983
0.0296958
-3.91345e-10
-1.69768e-07
0.00144361
0.0327752
1.4501e-07
0.00156887
0.0353694
1.30424e-07
0.00166452
0.0372458
-2.99433e-09
0.00171555
0.038231
-1.3647e-07
0.00171555
0.038231
-1.51234e-07
0.00166452
0.0372458
1.63285e-07
0.00156887
0.0353694
-2.21308e-06
0.00144361
0.0327752
0.00129983
0.0296958
-6.96397e-09
3.02899e-05
0.0046666
0.0797524
-1.00359e-09
3.89172e-05
0.00515062
0.0880356
3.56917e-05
0.00556687
0.0949882
2.11214e-05
0.00587612
0.100004
-9.55566e-09
0.00603999
0.102634
-2.11405e-05
0.00603999
0.102634
-3.57111e-05
0.00587612
0.100004
-3.89368e-05
0.00556687
0.0949882
-3.03094e-05
0.00515062
0.0880356
0.00466661
0.0797524
-1.97481e-08
8.39703e-05
0.00899893
0.118154
-1.73276e-09
0.000118668
0.00987581
0.130568
0.000109326
0.010623
0.140936
6.48209e-05
0.011168
0.148393
-1.65212e-08
0.0114552
0.152294
-6.48539e-05
0.0114552
0.152294
-0.000109359
0.011168
0.148393
-0.0001187
0.010623
0.140936
-8.40019e-05
0.00987582
0.130568
0.00899894
0.118154
-3.13551e-08
0.000162995
0.0132102
0.145579
-2.52963e-09
0.000236256
0.0144095
0.161129
0.000219172
0.0154215
0.174038
0.000130073
0.0161484
0.183289
-2.38316e-08
0.0165291
0.188117
-0.00013012
0.0165291
0.188117
-0.000219219
0.0161484
0.183289
-0.000236301
0.0154215
0.174038
-0.000163037
0.0144095
0.161129
0.0132102
0.145579
-4.15539e-08
0.000264409
0.0164885
0.162864
-3.44306e-09
0.000384901
0.0178681
0.180666
0.000357915
0.0190183
0.195346
0.000212399
0.0198326
0.20582
-3.13984e-08
0.0202558
0.211273
-0.000212461
0.0202558
0.211273
-0.000357976
0.0198326
0.20582
-0.000384958
0.0190183
0.195346
-0.000264461
0.0178681
0.180666
0.0164885
0.162864
-5.02533e-08
0.00038291
0.0183534
0.170964
-4.49642e-09
0.000555748
0.0197509
0.190264
0.000516683
0.0208984
0.206061
0.000306405
0.0216985
0.21728
-3.90938e-08
0.022111
0.223105
-0.000306482
0.022111
0.223105
-0.000516757
0.0216985
0.21728
-0.000555816
0.0208984
0.206061
-0.000382971
0.0197509
0.190263
0.0183534
0.170964
-5.72855e-08
0.000511185
0.018642
0.170896
-5.76249e-09
0.00073881
0.0199127
0.191071
0.000686148
0.0209365
0.207459
0.000406525
0.0216392
0.219038
-4.66164e-08
0.0219984
0.225031
-0.000406616
0.0219984
0.225031
-0.000686234
0.0216392
0.219038
-0.000738888
0.0209365
0.207459
-0.000511252
0.0199128
0.191071
0.018642
0.170896
-6.24474e-08
0.000642681
0.0174545
0.163689
-7.32034e-09
0.000926279
0.0184933
0.184253
0.000858873
0.019313
0.200825
0.000508177
0.0198672
0.212469
-5.34072e-08
0.020148
0.218475
-0.000508282
0.0201481
0.218475
-0.00085897
0.0198672
0.212469
-0.000926365
0.019313
0.200825
-0.000642753
0.0184933
0.184253
0.0174545
0.163689
-6.55454e-08
0.00077746
0.0150786
0.150349
-9.14186e-09
0.00111557
0.0158334
0.170952
0.00103042
0.0164177
0.187416
0.000608101
0.0168077
0.198908
-5.8574e-08
0.017004
0.204812
-0.000608214
0.017004
0.204812
-0.00103052
0.0168077
0.198908
-0.00111566
0.0164177
0.187415
-0.000777533
0.0158334
0.170952
0.0150786
0.150349
-6.60199e-08
0.00091157
0.131839
-1.11057e-08
0.0119217
0.00130011
0.152298
0.0123848
0.00119616
0.168437
0.0127485
0.000703762
0.179616
0.0129951
-6.09486e-08
0.185333
0.0131191
-0.00070388
0.185333
0.0131191
-0.00119627
0.179616
0.0129951
-0.0013002
0.168437
0.0127485
-0.000911642
0.152298
0.0123849
0.131839
-6.3811e-08
0.0119217
-5.52814e-06
0.000559301
0.029142
-3.3004e-10
-8.25632e-06
0.000615207
0.0321627
-6.5957e-06
0.000662571
0.0347051
-3.64571e-06
0.000698535
0.0365444
-2.37326e-09
0.000717455
0.0375099
3.64097e-06
0.000717455
0.0375099
6.59075e-06
0.000698536
0.0365444
8.25121e-06
0.000662571
0.0347051
5.52315e-06
0.000615208
0.0321627
0.000559302
0.029142
-5.56652e-09
-1.36042e-06
0.00194553
0.0783675
-8.855e-10
-2.69079e-06
0.00214295
0.0865092
-1.4018e-06
0.00231129
0.0933382
-3.34424e-07
0.00243649
0.0982654
-7.54963e-09
0.00250279
0.100848
3.18939e-07
0.0025028
0.100848
1.38653e-06
0.00243649
0.0982654
2.67462e-06
0.0023113
0.0933382
1.34249e-06
0.00214296
0.0865092
0.00194553
0.0783675
-1.58711e-08
1.6165e-05
0.00377996
0.116304
-1.4761e-09
2.3805e-05
0.00415606
0.128547
2.33432e-05
0.00447678
0.138771
1.44415e-05
0.0047121
0.146126
-1.29419e-08
0.00483645
0.149974
-1.44673e-05
0.00483645
0.149974
-2.3369e-05
0.00471211
0.146126
-2.38303e-05
0.00447679
0.138771
-1.6189e-05
0.00415607
0.128547
0.00377996
0.116304
-2.44376e-08
4.75424e-05
0.00565866
0.143653
-2.13888e-09
7.06443e-05
0.00619891
0.159063
6.71991e-05
0.00665707
0.171861
4.05593e-05
0.00698908
0.181038
-1.85772e-08
0.0071637
0.185831
-4.05962e-05
0.0071637
0.185831
-6.72354e-05
0.00698908
0.181038
-7.06793e-05
0.00665708
0.171861
-4.75752e-05
0.00619892
0.159063
0.00565866
0.143653
-3.22673e-08
9.15895e-05
0.00722565
0.161205
-2.89514e-09
0.000135503
0.00787652
0.178945
0.000127874
0.0084232
0.193587
7.6633e-05
0.00881432
0.204046
-2.43522e-08
0.00901877
0.209495
-7.66812e-05
0.00901877
0.209495
-0.000127921
0.00881432
0.204046
-0.000135547
0.00842321
0.193587
-9.163e-05
0.00787653
0.178944
0.00722566
0.161205
-3.90677e-08
0.000146217
0.00822863
0.169815
-3.75601e-09
0.000214865
0.00891721
0.189154
0.000201887
0.00948772
0.205009
0.000120556
0.00989032
0.216285
-3.01391e-08
0.0100993
0.222145
-0.000120615
0.0100993
0.222145
-0.000201944
0.00989033
0.216285
-0.000214917
0.00948773
0.205009
-0.000146264
0.00891722
0.189154
0.00822864
0.169815
-4.46024e-08
0.000208311
0.00854011
0.170376
-4.76923e-09
0.000304318
0.0091926
0.1907
0.000285053
0.00972383
0.207242
0.000169808
0.0100933
0.21895
-3.5702e-08
0.0102835
0.225017
-0.000169878
0.0102835
0.225017
-0.000285119
0.0100933
0.21895
-0.000304378
0.00972384
0.207242
-0.000208363
0.00919262
0.1907
0.00854013
0.170376
-4.87069e-08
0.000274975
0.00815404
0.163801
-5.97419e-09
0.000400127
0.00870978
0.184611
0.000373655
0.00915356
0.201422
0.000222055
0.00945762
0.213257
-4.06445e-08
0.00961282
0.219368
-0.000222135
0.00961282
0.219368
-0.000373729
0.00945762
0.213257
-0.000400193
0.00915357
0.201422
-0.000275031
0.0087098
0.184611
0.00815405
0.1638
-5.12302e-08
0.000346436
0.00716507
0.150991
-7.30958e-09
0.000500822
0.00758757
0.17192
0.000465154
0.00791811
0.188687
0.000275452
0.00814135
0.200414
-4.43649e-08
0.0082544
0.206445
-0.000275538
0.0082544
0.206445
-0.000465234
0.00814136
0.200414
-0.000500891
0.00791812
0.188687
-0.000346493
0.00758758
0.17192
0.00716508
0.150991
-5.18185e-08
0.000418807
0.13284
-8.65636e-09
0.00574591
0.000601675
0.153684
0.00601869
0.000556557
0.170166
0.00623397
0.000328521
0.181605
0.00638083
-4.60926e-08
0.187461
0.00645508
-0.00032861
0.187461
0.00645508
-0.000556639
0.181605
0.00638083
-0.000601745
0.170166
0.00623398
-0.000418863
0.153684
0.0060187
0.13284
-5.0442e-08
0.00574591
-7.72616e-07
0.000175608
0.0289672
-2.4156e-10
-1.54762e-06
0.000194591
0.0319689
-1.14587e-06
0.000211168
0.0344936
-6.19545e-07
0.000224204
0.0363196
-1.80089e-09
0.000231164
0.0372781
6.15917e-07
0.000231164
0.0372781
1.14219e-06
0.000224204
0.0363196
1.5438e-06
0.000211169
0.0344936
7.68705e-07
0.000194592
0.0319689
0.000175608
0.0289672
-3.8964e-09
1.67574e-06
0.000689434
0.077852
-6.60899e-10
1.67965e-06
0.000763566
0.0859402
1.7993e-06
0.00082791
0.0927213
1.17595e-06
0.000876637
0.0976135
-5.67081e-09
0.000902659
0.100178
-1.18729e-06
0.000902659
0.100178
-1.8107e-06
0.000876638
0.0976135
-1.69083e-06
0.000827911
0.0927213
-1.68657e-06
0.000763568
0.0859402
0.000689436
0.077852
-1.10998e-08
9.16772e-06
0.00142034
0.115563
-1.14399e-09
1.27427e-05
0.00156979
0.127737
1.20447e-05
0.0016988
0.1379
7.2804e-06
0.00179474
0.145213
-9.74289e-09
0.0018458
0.149039
-7.29983e-06
0.0018458
0.149039
-1.2064e-05
0.00179475
0.145213
-1.27615e-05
0.0016988
0.1379
-9.18579e-06
0.00156979
0.127737
0.00142034
0.115563
-1.78371e-08
2.23286e-05
0.00221007
0.142841
-1.66193e-09
3.23918e-05
0.00243427
0.158188
3.04431e-05
0.00262645
0.170936
1.82415e-05
0.00276742
0.180078
-1.39424e-08
0.00284206
0.184853
-1.82692e-05
0.00284206
0.184853
-3.04703e-05
0.00276742
0.180078
-3.24179e-05
0.00262645
0.170936
-2.23531e-05
0.00243428
0.158188
0.00221008
0.142841
-2.38709e-08
4.12256e-05
0.00290768
0.160466
-2.23676e-09
6.03973e-05
0.00318798
0.178172
5.67246e-05
0.00342593
0.192791
3.38985e-05
0.00359822
0.203238
-1.81974e-08
0.00368889
0.208682
-3.39345e-05
0.00368889
0.208682
-5.67595e-05
0.00359823
0.203238
-6.04303e-05
0.00342594
0.192791
-4.1256e-05
0.00318799
0.178172
0.00290768
0.160466
-2.90922e-08
6.53275e-05
0.00339434
0.169263
-2.87619e-09
9.57442e-05
0.0037008
0.188611
8.98436e-05
0.00395759
0.204484
5.36076e-05
0.00414103
0.215779
-2.2414e-08
0.00423688
0.221651
-5.36518e-05
0.00423688
0.221651
-8.98859e-05
0.00414103
0.215779
-9.57834e-05
0.0039576
0.204484
-6.53627e-05
0.00370081
0.188611
0.00339435
0.169263
-3.34039e-08
9.35159e-05
0.00359825
0.170079
-3.60273e-09
0.000136755
0.00389746
0.19046
0.000128161
0.00414409
0.207064
7.63643e-05
0.00431775
0.218825
-2.64287e-08
0.00440777
0.224922
-7.64162e-05
0.00440777
0.224922
-0.00012821
0.00431776
0.218825
-0.0001368
0.0041441
0.207064
-9.35551e-05
0.00389747
0.19046
0.00359826
0.170079
-3.67054e-08
0.000124584
0.00349932
0.163775
-4.43654e-09
0.000181722
0.00376159
0.184689
0.000169909
0.00397372
0.201604
0.000101044
0.00412077
0.213523
-2.99834e-08
0.0041963
0.219681
-0.000101102
0.0041963
0.219681
-0.000169964
0.00412078
0.213523
-0.000181771
0.00397372
0.201604
-0.000124627
0.0037616
0.184689
0.00349933
0.163775
-3.8893e-08
0.000158308
0.00312517
0.151207
-5.33701e-09
0.00022937
0.0033307
0.17228
0.000213364
0.00349301
0.189183
0.000126476
0.00360365
0.201018
-3.27058e-08
0.00365995
0.207108
-0.00012654
0.00365995
0.207108
-0.000213423
0.00360366
0.201018
-0.000229422
0.00349302
0.189183
-0.000158352
0.00333071
0.17228
0.00312518
0.151207
-3.97667e-08
0.000190762
0.133229
-6.22724e-09
0.00254531
0.000275381
0.154249
0.00268165
0.000255624
0.170889
0.00278951
0.000151219
0.18245
0.00286345
-3.41422e-08
0.188371
0.00290099
-0.000151286
0.188371
0.00290099
-0.000255685
0.18245
0.00286345
-0.000275434
0.170889
0.00278952
-0.000190805
0.154249
0.00268166
0.133229
-3.93189e-08
0.00254532
-1.33235e-06
7.02813e-05
0.0288982
-1.65021e-10
-1.92311e-06
7.71272e-05
0.0318923
-1.55778e-06
8.29988e-05
0.0344102
-8.63904e-07
8.75728e-05
0.0362314
-1.33771e-09
8.99888e-05
0.0371873
8.61226e-07
8.99889e-05
0.0371873
1.5551e-06
8.7573e-05
0.0362314
1.92039e-06
8.29992e-05
0.0344102
1.32959e-06
7.71276e-05
0.0318923
7.02815e-05
0.0288982
-2.66672e-09
-1.68181e-06
0.000264767
0.0776592
-4.6397e-10
-2.53646e-06
0.000292404
0.0857258
-2.07681e-06
0.000316341
0.0924875
-1.12329e-06
0.000334505
0.0973657
-4.1821e-09
0.000344191
0.0999222
1.11495e-06
0.000344191
0.0999222
2.06854e-06
0.000334505
0.0973657
2.52821e-06
0.000316343
0.0924875
1.67363e-06
0.000292405
0.0857258
0.000264767
0.0776592
-7.70947e-09
4.97723e-07
0.000545804
0.115282
-7.94873e-10
5.44853e-07
0.000603783
0.127426
7.41905e-07
0.000653822
0.137563
5.65293e-07
0.000691223
0.144856
-7.15319e-09
0.000711174
0.148672
-5.79515e-07
0.000711174
0.148672
-7.55883e-07
0.000691224
0.144856
-5.57943e-07
0.000653824
0.137563
-5.09118e-07
0.000603785
0.127426
0.000545807
0.115282
-1.22799e-08
5.06336e-06
0.00086017
0.142521
-1.1821e-09
7.44885e-06
0.000950117
0.157839
7.22376e-06
0.00102744
0.170562
4.42841e-06
0.00108452
0.179687
-1.01984e-08
0.00111485
0.184453
-4.44865e-06
0.00111485
0.184453
-7.2435e-06
0.00108452
0.179687
-7.46781e-06
0.00102744
0.170562
-5.08111e-06
0.000950121
0.157839
0.000860174
0.142521
-1.69058e-08
1.23397e-05
0.00114974
0.160165
-1.59446e-09
1.82548e-05
0.00126575
0.17785
1.73687e-05
0.00136464
0.192455
1.04757e-05
0.00143677
0.202893
-1.32588e-08
0.00147487
0.208332
-1.05019e-05
0.00147487
0.208332
-1.73941e-05
0.00143677
0.202893
-1.82788e-05
0.00136465
0.192455
-1.23617e-05
0.00126575
0.17785
0.00114975
0.160164
-2.08713e-08
2.2076e-05
0.00136404
0.169027
-2.03829e-09
3.26085e-05
0.00149456
0.188372
3.08467e-05
0.00160449
0.204246
1.85065e-05
0.00168362
0.215544
-1.62682e-08
0.00172515
0.221419
-1.85386e-05
0.00172515
0.221419
-3.08774e-05
0.00168363
0.215544
-3.26371e-05
0.0016045
0.204246
-2.21017e-05
0.00149456
0.188372
0.00136404
0.169027
-2.4175e-08
3.38704e-05
0.00146839
0.169941
-2.52781e-09
4.98887e-05
0.00159929
0.190339
4.70447e-05
0.00170784
0.206964
2.81429e-05
0.00178487
0.218743
-1.91213e-08
0.00182497
0.224851
-2.81805e-05
0.00182498
0.224851
-4.70804e-05
0.00178487
0.218743
-4.99214e-05
0.00170785
0.206964
-3.38992e-05
0.0015993
0.190339
0.0014684
0.169941
-2.68049e-08
4.72857e-05
0.00144821
0.163748
-3.07437e-09
6.94343e-05
0.00156597
0.1847
6.52516e-05
0.00166184
0.201654
3.89246e-05
0.00172881
0.213605
-2.16638e-08
0.00176335
0.219781
-3.89671e-05
0.00176335
0.219781
-6.52915e-05
0.00172881
0.213605
-6.94702e-05
0.00166185
0.201654
-4.73168e-05
0.00156598
0.1847
0.00144821
0.163748
-2.87028e-08
6.23123e-05
0.00130927
0.151284
-3.64072e-09
9.07515e-05
0.00140406
0.172413
8.47475e-05
0.00147938
0.189372
5.03553e-05
0.00153106
0.20125
-2.36849e-08
0.00155745
0.207365
-5.04016e-05
0.00155746
0.207365
-8.47907e-05
0.00153107
0.20125
-9.07899e-05
0.00147939
0.189372
-6.23448e-05
0.00140406
0.172413
0.00130928
0.151284
-2.97643e-08
7.71243e-05
0.133384
-4.16631e-09
0.001077
0.000111916
0.154476
0.00114169
0.000104293
0.171183
0.00119309
6.18392e-05
0.182795
0.00122846
-2.4936e-08
0.188744
0.00124647
-6.18878e-05
0.188744
0.00124647
-0.000104338
0.182795
0.00122846
-0.000111956
0.171183
0.00119309
-7.71573e-05
0.154476
0.00114169
0.133384
-2.99933e-08
0.001077
-3.6131e-07
1.70886e-05
0.0288815
-1.09854e-10
-5.63263e-07
1.89487e-05
0.0318736
-4.57303e-07
2.06652e-05
0.0343894
-2.55697e-07
2.20858e-05
0.0362091
-9.68109e-10
2.28533e-05
0.0371641
2.53765e-07
2.28533e-05
0.0371641
4.55393e-07
2.20859e-05
0.0362091
5.61354e-07
2.06654e-05
0.0343894
3.5942e-07
1.8949e-05
0.0318736
1.70888e-05
0.0288815
-1.77943e-09
-5.0089e-07
7.85148e-05
0.0775983
-3.17075e-10
-8.5829e-07
8.74689e-05
0.0856576
-7.3178e-07
9.54803e-05
0.0924126
-4.07645e-07
0.00010173
0.0972857
-3.01047e-09
0.000105105
0.0998396
4.01656e-07
0.000105106
0.0998396
7.25904e-07
0.000101731
0.0972857
8.52496e-07
9.5481e-05
0.0924126
4.9524e-07
8.747e-05
0.0856576
7.85153e-05
0.0775983
-5.22206e-09
2.25659e-07
0.00017605
0.115184
-5.41408e-10
1.28868e-07
0.000196255
0.127317
1.51966e-07
0.000214049
0.137444
1.17543e-07
0.000227599
0.14473
-5.12819e-09
0.000234895
0.148543
-1.27707e-07
0.000234895
0.148543
-1.61915e-07
0.0002276
0.14473
-1.37997e-07
0.00021405
0.137444
-2.33731e-07
0.000196257
0.127317
0.000176052
0.115184
-8.4064e-09
1.87716e-06
0.000291677
0.142404
-7.99833e-10
2.60551e-06
0.00032452
0.15771
2.46737e-06
0.000353184
0.170423
1.49455e-06
0.000374664
0.179541
-7.28934e-09
0.000386167
0.184304
-1.50899e-06
0.000386167
0.184304
-2.48139e-06
0.000374666
0.179541
-2.61889e-06
0.000353186
0.170423
-1.88951e-06
0.000324523
0.15771
0.00029168
0.142404
-1.1639e-08
4.62344e-06
0.000403838
0.160048
-1.07243e-09
6.69767e-06
0.000447711
0.177725
6.31213e-06
0.000485599
0.192323
3.78767e-06
0.000513597
0.202756
-9.44479e-09
0.000528494
0.208194
-3.80634e-06
0.000528494
0.208194
-6.33013e-06
0.000513598
0.202756
-6.71462e-06
0.000485602
0.192323
-4.63886e-06
0.000447714
0.177725
0.000403841
0.160048
-1.44873e-08
8.42039e-06
0.000492231
0.16893
-1.36057e-09
1.23368e-05
0.000543029
0.188272
1.16233e-05
0.000586325
0.204146
6.95762e-06
0.00061787
0.215445
-1.15545e-08
0.000634533
0.22132
-6.9804e-06
0.000634533
0.22132
-1.16451e-05
0.000617872
0.215445
-1.23571e-05
0.000586328
0.204146
-8.43854e-06
0.000543033
0.188272
0.000492235
0.16893
-1.69322e-08
1.31432e-05
0.000541547
0.169878
-1.6679e-09
1.93148e-05
0.000593763
0.190282
1.81888e-05
0.000637552
0.206913
1.08715e-05
0.000668977
0.218699
-1.35561e-08
0.000685435
0.224811
-1.08981e-05
0.000685435
0.224811
-1.82141e-05
0.000668979
0.218699
-1.9338e-05
0.000637555
0.206913
-1.31637e-05
0.000593767
0.190282
0.000541551
0.169878
-1.8963e-08
1.86292e-05
0.000543837
0.163727
-1.99605e-09
2.73591e-05
0.000591882
0.184694
2.57075e-05
0.000631396
0.201662
1.5333e-05
0.000659267
0.213625
-1.53635e-08
0.000673715
0.219808
-1.53632e-05
0.000673715
0.219808
-2.57359e-05
0.000659269
0.213625
-2.73849e-05
0.000631399
0.201662
-1.86516e-05
0.000591885
0.184694
0.00054384
0.163727
-2.05443e-08
2.48127e-05
0.000499322
0.151303
-2.32115e-09