/*--------------------------------*- C++ -*----------------------------------*\
| =========                 |                                                 |
| \\      /  F ield         | OpenFOAM: The Open Source CFD Toolbox           |
|  \\    /   O peration     | Version:  2106                                  |
|   \\  /    A nd           | Website:  www.openfoam.com                      |
|    \\/     M anipulation  |                                                 |
\*---------------------------------------------------------------------------*/
FoamFile
{
    version     2.0;
    format      ascii;
    arch        "LSB;label=32;scalar=64";
    class       surfaceScalarField;
    location    "0.89";
    object      phi;
}
// * * * * * * * * * * * * * * * * * * * * * * * * * * * * * * * * * * * * * //

dimensions      [0 3 -1 0 0 0 0];

oriented        oriented;

internalField   nonuniform List<scalar> 
29100
(
0.00118094
0.150401
0.0809271
6.62031e-10
0.0014532
0.155278
0.0889337
0.00124707
0.158697
0.0956221
0.000710214
0.160975
0.100409
-1.66696e-09
0.162118
0.102903
-0.000710217
0.162118
0.102903
-0.00124707
0.160975
0.100409
-0.0014532
0.158697
0.0956221
-0.00118094
0.155278
0.0889337
0.150401
0.0809271
-2.08858e-10
0.00236446
0.20825
0.155463
6.44158e-10
0.00328433
0.212835
0.168987
0.00292936
0.215906
0.180045
0.00169461
0.217823
0.187865
-3.76262e-09
0.218763
0.191906
-0.00169462
0.218763
0.191906
-0.00292937
0.217823
0.187865
-0.00328434
0.215906
0.180045
-0.00236447
0.212835
0.168987
0.20825
0.155463
-1.2966e-09
0.00301635
0.219392
0.184685
8.17112e-10
0.00426639
0.222319
0.199708
0.00382975
0.224226
0.211801
0.00221815
0.225266
0.220277
-5.77997e-09
0.225749
0.224633
-0.00221816
0.225749
0.224633
-0.00382976
0.225266
0.220277
-0.0042664
0.224226
0.211801
-0.00301635
0.222319
0.199708
0.219392
0.184685
-2.58745e-09
0.00344517
0.206175
0.191783
8.68591e-10
0.00480661
0.207435
0.206943
0.00430566
0.208202
0.218994
0.00248936
0.208442
0.22738
-7.71946e-09
0.208514
0.231672
-0.00248937
0.208514
0.231672
-0.00430567
0.208442
0.22738
-0.00480662
0.208202
0.218994
-0.00344518
0.207435
0.206943
0.206175
0.191783
-3.99844e-09
0.00367455
0.181265
0.186414
8.86548e-10
0.0050574
0.181242
0.201211
0.00451806
0.181143
0.212853
0.00260876
0.180815
0.220908
-9.68509e-09
0.180599
0.225017
-0.00260878
0.180599
0.225017
-0.00451808
0.180815
0.220908
-0.00505742
0.181143
0.212853
-0.00367456
0.181242
0.201211
0.181265
0.186414
-5.38638e-09
0.00375958
0.151938
0.173913
8.86608e-10
0.00512349
0.151064
0.188192
0.00456764
0.150402
0.199338
0.0026359
0.149739
0.207008
-1.15913e-08
0.149363
0.210911
-0.00263592
0.149363
0.210911
-0.00456766
0.149739
0.207008
-0.0051235
0.150402
0.199338
-0.00375959
0.151064
0.188192
0.151938
0.173913
-6.62868e-09
0.00376774
0.122275
0.157408
8.8313e-10
0.00509864
0.12092
0.171171
0.00453864
0.119944
0.181843
0.00261901
0.119138
0.189153
-1.32913e-08
0.118703
0.192864
-0.00261903
0.118703
0.192864
-0.00453866
0.119138
0.189153
-0.00509866
0.119944
0.181843
-0.00376775
0.12092
0.171171
0.122275
0.157408
-7.58928e-09
0.00373357
0.09449
0.138732
8.69386e-10
0.00504508
0.0929124
0.152033
0.00449082
0.091819
0.16229
0.0025926
0.0910147
0.169285
-1.45032e-08
0.0905986
0.172827
-0.00259263
0.0905986
0.172827
-0.00449084
0.0910147
0.169285
-0.0050451
0.091819
0.16229
-0.00373359
0.0929124
0.152033
0.09449
0.138732
-8.18337e-09
0.00370212
0.0696977
0.118938
6.46858e-10
0.00502722
0.0680619
0.131841
0.00447634
0.0670228
0.141743
0.00258345
0.0663352
0.148466
-1.48915e-08
0.0659949
0.151864
-0.00258348
0.0659949
0.151864
-0.00447637
0.0663352
0.148466
-0.00502724
0.0670228
0.141743
-0.00370213
0.0680619
0.131841
0.0696978
0.118938
-8.38216e-09
0.00392253
0.098627
6.22185e-10
0.0481632
0.00521711
0.111193
0.0468689
0.00458902
0.120785
0.0460471
0.00262855
0.12727
0.04555
-1.42985e-08
0.130539
0.0453063
-0.00262858
0.130539
0.0453063
-0.00458904
0.12727
0.04555
-0.00521713
0.120785
0.0460471
-0.00392254
0.111193
0.0468689
0.098627
-8.201e-09
0.0481632
-0.000240374
0.0365302
0.0446373
3.59322e-10
-0.000242424
0.0397048
0.049231
-0.000170381
0.0423874
0.0531626
-8.48422e-05
0.0443058
0.056018
-2.30317e-09
0.0452982
0.0575195
8.48378e-05
0.0452982
0.0575195
0.000170377
0.0443058
0.056018
0.000242421
0.0423874
0.0531626
0.000240372
0.0397048
0.049231
0.0365302
0.0446373
-1.27424e-09
6.49368e-05
0.0807036
0.111224
2.56107e-10
0.000253334
0.086495
0.122008
0.000302648
0.0913111
0.131072
0.000202707
0.0946858
0.137585
-6.11736e-09
0.0964192
0.140987
-0.000202719
0.0964192
0.140987
-0.000302658
0.0946858
0.137585
-0.000253343
0.0913111
0.131072
-6.49435e-05
0.086495
0.122008
0.0807036
0.111224
-4.52684e-09
0.000614924
0.112216
0.152557
3.36864e-10
0.00103335
0.118928
0.166856
0.00101103
0.124438
0.178696
0.000617887
0.128223
0.187133
-1.0057e-08
0.130153
0.191518
-0.000617906
0.130153
0.191518
-0.00101105
0.128223
0.187133
-0.00103336
0.124438
0.178696
-0.000614935
0.118928
0.166856
0.112216
0.152557
-7.87788e-09
0.00123441
0.128729
0.174036
4.07582e-10
0.00187787
0.135125
0.190103
0.00176698
0.140308
0.203234
0.00105532
0.143796
0.212519
-1.39767e-08
0.145557
0.217323
-0.00105534
0.145557
0.217323
-0.001767
0.143796
0.212519
-0.00187789
0.140308
0.203234
-0.00123442
0.135125
0.190103
0.128729
0.174036
-1.13054e-08
0.00184028
0.131972
0.18133
4.43978e-10
0.00268056
0.137364
0.198132
0.00247739
0.141664
0.2117
0.00146346
0.144489
0.221228
-1.79053e-08
0.145899
0.226139
-0.0014635
0.145899
0.226139
-0.00247742
0.144489
0.221228
-0.00268059
0.141664
0.2117
-0.0018403
0.137364
0.198132
0.131972
0.18133
-1.46432e-08
0.00238857
0.124975
0.178521
4.20199e-10
0.00339482
0.12909
0.19546
0.00310508
0.132295
0.208996
0.0018229
0.134341
0.218439
-2.16858e-08
0.135345
0.223287
-0.00182294
0.135345
0.223287
-0.00310512
0.134341
0.218439
-0.00339485
0.132295
0.208996
-0.00238859
0.12909
0.19546
0.124975
0.178521
-1.77434e-08
0.00285612
0.11096
0.168568
2.78394e-10
0.00400422
0.113791
0.185322
0.00364151
0.115916
0.198584
0.0021306
0.117225
0.20778
-2.51415e-08
0.117855
0.212485
-0.00213065
0.117855
0.212485
-0.00364155
0.117225
0.20778
-0.00400425
0.115916
0.198584
-0.00285614
0.113791
0.185322
0.11096
0.168568
-2.04492e-08
0.0032371
0.0928394
0.153615
2.81725e-11
0.00451839
0.0945158
0.170027
0.00410035
0.0957136
0.182911
0.00239535
0.0964223
0.191792
-2.80609e-08
0.0967577
0.19632
-0.0023954
0.0967577
0.19632
-0.0041004
0.0964223
0.191792
-0.00451843
0.0957137
0.182911
-0.00323713
0.0945158
0.170027
0.0928394
0.153615
-2.26234e-08
0.00356732
0.073011
0.135199
-6.9963e-10
0.0049865
0.073725
0.151213
0.00451934
0.0742373
0.163687
0.00263594
0.0745367
0.172235
-3.01664e-08
0.0746784
0.176579
-0.002636
0.0746784
0.176579
-0.0045194
0.0745367
0.172235
-0.00498654
0.0742373
0.163687
-0.00356736
0.0737251
0.151213
0.073011
0.135199
-2.43776e-08
0.00399384
0.11441
-1.40415e-09
0.0532341
0.00553277
0.130036
0.0533436
0.00497526
0.1421
0.0534806
0.00288576
0.150318
0.0535786
-3.08785e-08
0.154479
0.0536243
-0.00288582
0.154479
0.0536243
-0.00497532
0.150318
0.0535786
-0.00553282
0.1421
0.0534806
-0.00399387
0.130036
0.0533436
0.11441
-2.57341e-08
0.0532341
3.92971e-05
0.00999837
0.0345996
1.64712e-11
3.52656e-05
0.0110325
0.0382025
2.97196e-05
0.0119101
0.0412581
1.64723e-05
0.0125617
0.0434696
-2.20052e-09
0.012905
0.044631
-1.64765e-05
0.012905
0.044631
-2.97234e-05
0.0125617
0.0434696
-3.52687e-05
0.0119101
0.0412581
-3.92996e-05
0.0110325
0.0382025
0.00999837
0.0345996
-1.8937e-09
0.000281538
0.0303187
0.0906226
-1.26451e-10
0.000382368
0.03303
0.0999099
0.000341763
0.0352988
0.107723
0.000199367
0.0369352
0.113354
-6.54089e-09
0.0377901
0.116302
-0.00019938
0.0377901
0.116302
-0.000341775
0.0369352
0.113354
-0.000382378
0.0352988
0.107723
-0.000281547
0.03303
0.0999099
0.0303187
0.0906226
-6.36318e-09
0.000601356
0.0512411
0.131033
-2.12833e-10
0.000853336
0.0552466
0.144387
0.000773129
0.0585543
0.155521
0.00045317
0.060887
0.163501
-1.1231e-08
0.0620954
0.167665
-0.000453192
0.0620955
0.167665
-0.000773149
0.0608871
0.163501
-0.000853353
0.0585543
0.155521
-0.00060137
0.0552466
0.144387
0.0512411
0.131033
-1.09551e-08
0.000969025
0.0670656
0.157242
-2.40418e-10
0.00139074
0.0716489
0.173279
0.00127029
0.075388
0.186521
0.000746037
0.0779737
0.195956
-1.60369e-08
0.0793011
0.200864
-0.000746068
0.0793011
0.200864
-0.00127032
0.0779737
0.195956
-0.00139077
0.075388
0.186521
-0.000969045
0.071649
0.173279
0.0670656
0.157242
-1.55326e-08
0.00135944
0.0757939
0.171243
-2.842e-10
0.00194731
0.0802954
0.188897
0.0017831
0.0839193
0.203333
0.00104747
0.0863776
0.21356
-2.08705e-08
0.0876269
0.21886
-0.00104752
0.0876269
0.21886
-0.00178314
0.0863776
0.21356
-0.00194735
0.0839193
0.203333
-0.00135946
0.0802954
0.188897
0.0757939
0.171243
-1.99187e-08
0.00175218
0.0774407
0.175122
-3.74402e-10
0.00249294
0.0813926
0.193622
0.0022817
0.0845197
0.208607
0.00133963
0.0865984
0.21916
-2.55368e-08
0.0876433
0.224611
-0.00133968
0.0876433
0.224611
-0.00228174
0.0865984
0.21916
-0.00249297
0.0845197
0.208607
-0.00175221
0.0813926
0.193622
0.0774407
0.175122
-2.39577e-08
0.00212393
0.0730772
0.170807
-5.54229e-10
0.00300334
0.0762162
0.189619
0.00274611
0.0786428
0.204718
0.00161137
0.0802223
0.215291
-2.98274e-08
0.0810074
0.220732
-0.00161143
0.0810074
0.220732
-0.00274617
0.0802224
0.215291
-0.00300339
0.0786428
0.204718
-0.00212397
0.0762162
0.189619
0.0730773
0.170807
-2.74926e-08
0.00245857
0.0642552
0.159979
-8.45465e-10
0.00346845
0.0664834
0.17875
0.00316972
0.0681629
0.19369
0.00185905
0.0692366
0.204089
-3.34703e-08
0.0697654
0.209421
-0.00185911
0.0697654
0.209421
-0.00316978
0.0692366
0.204089
-0.0034685
0.0681629
0.19369
-0.00245861
0.0664834
0.17875
0.0642552
0.159979
-3.0352e-08
0.0027686
0.0526364
0.144049
-1.39277e-09
0.0039041
0.0539881
0.162572
0.00356216
0.055001
0.177191
0.00208628
0.055646
0.187302
-3.61616e-08
0.0559633
0.192467
-0.00208635
0.0559633
0.192467
-0.00356223
0.055646
0.187302
-0.00390416
0.055001
0.177191
-0.00276864
0.0539882
0.162572
0.0526364
0.144049
-3.24568e-08
0.00311203
0.124186
-2.04425e-09
0.0397487
0.00435393
0.142378
0.0404033
0.00395008
0.156577
0.0409278
0.00230411
0.16633
0.04128
-3.76254e-08
0.171293
0.0414541
-0.00230418
0.171293
0.0414541
-0.00395015
0.16633
0.04128
-0.00435399
0.156577
0.0409278
-0.00311208
0.142378
0.0404034
0.124186
-3.37164e-08
0.0397487
-3.16236e-05
0.00408497
0.0305463
-1.4034e-10
-4.51599e-05
0.00449832
0.0337177
-3.63988e-05
0.00484907
0.0364002
-2.00625e-05
0.00510986
0.0383434
-1.87885e-09
0.00524649
0.0393645
2.00589e-05
0.00524649
0.0393645
3.63954e-05
0.00510987
0.0383434
4.51569e-05
0.00484907
0.0364002
3.16211e-05
0.00449832
0.0337177
0.00408497
0.0305463
-2.02904e-09
1.02314e-05
0.0126861
0.0820112
-2.29628e-10
1.76352e-05
0.0139013
0.0904996
2.20451e-05
0.0149309
0.0976373
1.57039e-05
0.0156814
0.102788
-6.05852e-09
0.016075
0.105489
-1.57157e-05
0.016075
0.105489
-2.20561e-05
0.0156814
0.102788
-1.76446e-05
0.0149309
0.0976373
-1.0239e-05
0.0139013
0.0904996
0.0126862
0.0820112
-6.71356e-09
0.000124056
0.0225849
0.121011
-3.62616e-10
0.000188117
0.0246033
0.133621
0.000180644
0.0263023
0.144157
0.000110052
0.0275219
0.151731
-1.07154e-08
0.0281588
0.155692
-0.000110073
0.0281588
0.155692
-0.000180663
0.0275219
0.151731
-0.000188134
0.0263023
0.144157
-0.00012407
0.0246033
0.133621
0.0225849
0.121011
-1.17088e-08
0.000295221
0.0313174
0.148214
-4.68539e-10
0.000440202
0.0338888
0.163848
0.000414984
0.0360325
0.176815
0.000248815
0.0375488
0.186096
-1.56039e-08
0.0383356
0.190936
-0.000248845
0.0383356
0.190936
-0.000415012
0.0375488
0.186096
-0.000440226
0.0360326
0.176815
-0.000295241
0.0338888
0.163848
0.0313174
0.148214
-1.66129e-08
0.000508069
0.0373578
0.164694
-6.19713e-10
0.000746836
0.0401405
0.182407
0.000698597
0.0424308
0.196983
0.000416154
0.0440261
0.207365
-2.05603e-08
0.0448476
0.212764
-0.000416194
0.0448476
0.212764
-0.000698634
0.0440261
0.207365
-0.000746869
0.0424308
0.196983
-0.000508095
0.0401406
0.182407
0.0373578
0.164694
-2.12724e-08
0.000746526
0.0400515
0.171682
-8.56018e-10
0.00108391
0.0427233
0.190702
0.00100844
0.044885
0.206228
0.000598417
0.0463665
0.21723
-2.53804e-08
0.0471229
0.222934
-0.000598466
0.0471229
0.222934
-0.00100849
0.0463665
0.21723
-0.00108395
0.044885
0.206228
-0.000746559
0.0427233
0.190702
0.0400515
0.171682
-2.55389e-08
0.00099326
0.0394152
0.17045
-1.23554e-09
0.00142964
0.04173
0.190175
0.00132516
0.0435624
0.206145
0.000784392
0.044797
0.217401
-2.98541e-08
0.0454217
0.223218
-0.00078445
0.0454217
0.223218
-0.00132521
0.044797
0.217401
-0.00142968
0.0435624
0.206145
-0.000993297
0.04173
0.190175
0.0394152
0.17045
-2.9271e-08
0.00123524
0.0359269
0.162232
-1.74076e-09
0.0017706
0.0377325
0.182212
0.00163697
0.0391285
0.198257
0.000967043
0.0400546
0.209501
-3.37257e-08
0.0405193
0.215291
-0.000967109
0.0405193
0.215291
-0.00163703
0.0400546
0.209501
-0.00177065
0.0391285
0.198257
-0.00123529
0.0377326
0.182212
0.035927
0.162232
-3.2316e-08
0.00147663
0.0303304
0.148169
-2.45394e-09
0.00210917
0.0315744
0.168098
0.00194239
0.0325211
0.183965
0.00114421
0.0331434
0.195011
-3.66946e-08
0.0334541
0.200677
-0.00114428
0.0334541
0.200677
-0.00194246
0.0331434
0.195011
-0.00210922
0.0325211
0.183965
-0.00147668
0.0315744
0.168098
0.0303305
0.148169
-3.45687e-08
0.00173191
0.129302
-3.27444e-09
0.0234825
0.00245567
0.149028
0.0242016
0.0022486
0.164537
0.0247677
0.00131898
0.175254
0.0251488
-3.84467e-08
0.180727
0.0253392
-0.00131905
0.180727
0.0253392
-0.00224867
0.175254
0.0251488
-0.00245572
0.164537
0.0247677
-0.00173196
0.149028
0.0242016
0.129302
-3.57872e-08
0.0234825
2.10912e-06
0.00133727
0.0292069
-1.88384e-10
-2.71815e-07
0.00148488
0.0322352
1.3048e-07
0.00161324
0.0347866
1.45436e-07
0.00171123
0.0366322
-1.52684e-09
0.00176348
0.0376011
-1.48428e-07
0.00176348
0.0376011
-1.3328e-07
0.00171123
0.0366322
2.69273e-07
0.00161324
0.0347866
-2.1113e-06
0.00148488
0.0322352
0.00133728
0.0292069
-2.00016e-09
3.09373e-05
0.00479848
0.078519
-3.49775e-10
4.00083e-05
0.00529626
0.0866792
3.68548e-05
0.00572391
0.0935298
2.1863e-05
0.00604161
0.0984731
-5.22101e-09
0.00620994
0.101064
-2.18732e-05
0.00620994
0.101064
-3.68643e-05
0.00604161
0.0984731
-4.00169e-05
0.00572391
0.0935297
-3.09447e-05
0.00529626
0.0866791
0.00479849
0.078519
-6.56025e-09
8.63299e-05
0.00925885
0.116464
-5.13202e-10
0.000122379
0.0101629
0.128719
0.000112969
0.0109328
0.138958
6.70564e-05
0.0114945
0.146324
-9.43093e-09
0.0117905
0.150178
-6.70748e-05
0.0117905
0.150178
-0.000112986
0.0114945
0.146324
-0.000122395
0.0109328
0.138958
-8.6343e-05
0.0101629
0.128719
0.00925885
0.116464
-1.12601e-08
0.000168042
0.0136073
0.143698
-6.67775e-10
0.00024402
0.0148477
0.159088
0.000226645
0.0158939
0.171872
0.000134603
0.0166458
0.181036
-1.39343e-08
0.0170396
0.185821
-0.00013463
0.0170396
0.185821
-0.00022667
0.0166458
0.181036
-0.000244043
0.0158939
0.171872
-0.000168061
0.0148477
0.159088
0.0136074
0.143698
-1.58862e-08
0.000273108
0.0170085
0.16102
-8.66102e-10
0.00039809
0.0184403
0.178689
0.000370497
0.019634
0.193271
0.000219982
0.0204796
0.203682
-1.85535e-08
0.0209193
0.209105
-0.000220018
0.0209193
0.209105
-0.000370531
0.0204796
0.203682
-0.000398119
0.019634
0.193271
-0.000273133
0.0184403
0.178689
0.0170085
0.16102
-2.02871e-08
0.000396135
0.0189623
0.169332
-1.14773e-09
0.000575563
0.0204183
0.188545
0.000535476
0.0216142
0.204288
0.000317687
0.0224488
0.215479
-2.30852e-08
0.0228793
0.221292
-0.000317732
0.0228793
0.221292
-0.000535518
0.0224488
0.215479
-0.000575599
0.0216142
0.204288
-0.000396165
0.0204183
0.188545
0.0189624
0.169332
-2.42995e-08
0.00052962
0.0192926
0.169591
-1.57732e-09
0.00076616
0.020622
0.189735
0.000711959
0.0216937
0.20612
0.000421968
0.0224302
0.21771
-2.73246e-08
0.0228069
0.223712
-0.000422022
0.0228069
0.223712
-0.000712008
0.0224302
0.21771
-0.000766202
0.0216937
0.20612
-0.000529654
0.020622
0.189735
0.0192926
0.16959
-2.77861e-08
0.000666801
0.0180937
0.162764
-2.15225e-09
0.000961742
0.0191854
0.183354
0.00089215
0.0200478
0.199973
0.000528016
0.0206316
0.211664
-3.10343e-08
0.0209276
0.217698
-0.000528076
0.0209276
0.217698
-0.000892206
0.0206316
0.211664
-0.000961789
0.0200478
0.199973
-0.000666839
0.0191854
0.183354
0.0180937
0.162764
-3.0597e-08
0.00080765
0.0156557
0.149799
-2.94873e-09
0.00115936
0.0164533
0.170478
0.00107119
0.0170712
0.187029
0.000632296
0.0174842
0.198597
-3.39285e-08
0.0176922
0.204544
-0.000632361
0.0176922
0.204544
-0.00107125
0.0174842
0.198597
-0.00115941
0.0170712
0.187029
-0.000807691
0.0164533
0.170478
0.0156557
0.149799
-3.2614e-08
0.000946788
0.131614
-3.81498e-09
0.012397
0.00135118
0.152187
0.012889
0.00124371
0.16844
0.0132756
0.000731957
0.179712
0.0135378
-3.56957e-08
0.185481
0.0136699
-0.000732026
0.185481
0.0136699
-0.00124377
0.179712
0.0135378
-0.00135123
0.16844
0.0132756
-0.000946829
0.152187
0.012889
0.131614
-3.36399e-08
0.012397
-5.57619e-06
0.000583882
0.0286286
-1.83866e-10
-8.31251e-06
0.000642338
0.0315956
-6.58313e-06
0.000691788
0.0340931
-3.62681e-06
0.00072938
0.0358998
-1.16656e-09
0.00074914
0.0368484
3.6244e-06
0.00074914
0.0368484
6.58089e-06
0.000729381
0.0358998
8.3105e-06
0.000691789
0.0340931
5.57427e-06
0.000642339
0.0315956
0.000583883
0.0286286
-1.786e-09
-8.42996e-07
0.00203436
0.0770694
-2.95152e-10
-1.86456e-06
0.00224117
0.0850813
-5.97774e-07
0.00241739
0.0918029
1.88112e-07
0.00254839
0.0966533
-4.15835e-09
0.00261779
0.0991958
-1.95777e-07
0.0026178
0.0991958
5.90137e-07
0.00254839
0.0966533
1.85682e-06
0.0024174
0.0918029
8.36691e-07
0.00224117
0.0850813
0.00203437
0.0770694
-5.76227e-09
1.78022e-05
0.00395706
0.114523
-4.79626e-10
2.63384e-05
0.00435181
0.126599
2.58324e-05
0.00468822
0.136687
1.59638e-05
0.00493506
0.143947
-7.78389e-09
0.0050655
0.147747
-1.59792e-05
0.0050655
0.147747
-2.58467e-05
0.00493506
0.143947
-2.63511e-05
0.00468822
0.136687
-1.78133e-05
0.00435181
0.126599
0.00395707
0.114523
-9.8848e-09
5.10247e-05
0.00593084
0.141673
-6.76337e-10
7.59601e-05
0.0064993
0.156915
7.23081e-05
0.0069812
0.169582
4.3653e-05
0.00733049
0.17867
-1.16757e-08
0.00751424
0.183416
-4.36758e-05
0.00751425
0.183416
-7.23294e-05
0.0073305
0.17867
-7.5979e-05
0.00698121
0.169582
-5.10408e-05
0.00649931
0.156915
0.00593085
0.141673
-1.39476e-08
9.75937e-05
0.00758338
0.15927
-9.25108e-10
0.000144569
0.00827025
0.176871
0.000136513
0.00884712
0.191413
8.18356e-05
0.00926004
0.201807
-1.5688e-08
0.00947595
0.207225
-8.18662e-05
0.00947596
0.207225
-0.000136542
0.00926004
0.201807
-0.000144594
0.00884713
0.191413
-9.76147e-05
0.00827027
0.176871
0.00758339
0.15927
-1.78199e-08
0.000155366
0.0086487
0.168111
-1.25637e-09
0.000228541
0.00937773
0.187364
0.000214849
0.00998191
0.203167
0.000128334
0.0104086
0.214417
-1.96535e-08
0.0106301
0.220266
-0.000128372
0.0106301
0.220266
-0.000214884
0.0104086
0.214417
-0.000228572
0.00998192
0.203167
-0.000155391
0.00937775
0.187364
0.00864871
0.168111
-2.13516e-08
0.0002211
0.0089899
0.169028
-1.7184e-09
0.000323269
0.00968314
0.189328
0.000302932
0.0102479
0.205874
0.000180503
0.010641
0.2176
-2.33941e-08
0.0108435
0.223679
-0.000180548
0.0108435
0.223679
-0.000302974
0.010641
0.2176
-0.000323306
0.0102479
0.205874
-0.000221129
0.00968316
0.189328
0.00898992
0.169028
-2.44192e-08
0.000291755
0.00859685
0.162865
-2.28552e-09
0.000424791
0.00918952
0.183714
0.000396799
0.00966318
0.200585
0.000235853
0.00998804
0.212478
-2.66994e-08
0.010154
0.218624
-0.000235904
0.010154
0.218624
-0.000396847
0.00998805
0.212478
-0.000424832
0.00966319
0.200585
-0.000291788
0.00918954
0.183714
0.00859687
0.162865
-2.6886e-08
0.000367495
0.00756566
0.150463
-3.00378e-09
0.00053138
0.00801816
0.171486
0.000493613
0.00837235
0.188358
0.000292344
0.00861176
0.200175
-2.93105e-08
0.00873305
0.206258
-0.000292401
0.00873305
0.206258
-0.000493665
0.00861177
0.200175
-0.000531425
0.00837236
0.188358
-0.00036753
0.00801817
0.171486
0.00756567
0.150463
-2.86428e-08
0.000443427
0.132659
-3.78396e-09
0.00607648
0.000637406
0.153642
0.00636964
0.000589844
0.170259
0.00660111
0.000348267
0.181807
0.00675904
-3.09488e-08
0.187723
0.00683893
-0.000348327
0.187723
0.00683893
-0.000589899
0.181807
0.00675904
-0.000637452
0.170259
0.00660111
-0.000443463
0.153642
0.00636964
0.132659
-2.95087e-08
0.00607649
-8.44024e-07
0.00019031
0.0284391
-1.75369e-10
-1.63753e-06
0.000210795
0.0313856
-1.19014e-06
0.000228618
0.033864
-6.35319e-07
0.000242608
0.0356567
-8.87092e-10
0.000250072
0.0365977
6.33549e-07
0.000250072
0.0365977
1.18844e-06
0.000242609
0.0356567
1.6359e-06
0.000228619
0.033864
8.42468e-07
0.000210796
0.0313856
0.00019031
0.0284391
-1.45796e-09
1.85682e-06
0.000742807
0.076515
-3.09146e-10
1.98342e-06
0.000822551
0.0844695
2.14802e-06
0.000891609
0.0911397
1.40609e-06
0.000943863
0.0959528
-3.26561e-09
0.000971756
0.0984755
-1.41254e-06
0.000971756
0.0984755
-2.15413e-06
0.000943864
0.0959527
-1.98897e-06
0.000891611
0.0911397
-1.86174e-06
0.000822553
0.0844694
0.00074281
0.076515
-4.69861e-09
1.00088e-05
0.00152735
0.113729
-4.85103e-10
1.40549e-05
0.0016881
0.12573
1.33454e-05
0.00182665
0.135753
8.08485e-06
0.00192965
0.142967
-6.11576e-09
0.00198445
0.146742
-8.09686e-06
0.00198445
0.146742
-1.33567e-05
0.00192965
0.142967
-1.40652e-05
0.00182666
0.135753
-1.00178e-05
0.0016881
0.12573
0.00152735
0.113729
-8.11892e-09
2.4263e-05
0.00237551
0.140801
-6.7738e-10
3.53515e-05
0.00261698
0.155975
3.32987e-05
0.00282375
0.168587
1.99773e-05
0.00297539
0.177637
-9.26005e-09
0.00305568
0.182365
-1.99954e-05
0.00305568
0.182365
-3.33156e-05
0.0029754
0.177637
-3.53667e-05
0.00282375
0.168587
-2.4276e-05
0.00261699
0.155975
0.00237552
0.140801
-1.15019e-08
4.46895e-05
0.0031263
0.158474
-9.19259e-10
6.56326e-05
0.00342884
0.176038
6.17234e-05
0.00368551
0.190555
3.69146e-05
0.00387137
0.200936
-1.25534e-08
0.00396919
0.206348
-3.69391e-05
0.00396919
0.206348
-6.17462e-05
0.00387138
0.200936
-6.56528e-05
0.00368552
0.190555
-4.47065e-05
0.00342885
0.176038
0.00312631
0.158474
-1.47372e-08
7.07252e-05
0.00365233
0.167514
-1.22968e-09
0.000103821
0.00398397
0.186776
9.75088e-05
0.0042618
0.202597
5.82126e-05
0.00446033
0.213867
-1.58387e-08
0.00456409
0.219729
-5.82434e-05
0.0045641
0.219729
-9.75374e-05
0.00446034
0.213867
-0.000103846
0.00426181
0.202597
-7.07461e-05
0.00398398
0.186776
0.00365234
0.167514
-1.76983e-08
0.000101177
0.00387573
0.168704
-1.64563e-09
0.000148121
0.00420049
0.189064
0.000138897
0.0044682
0.205677
8.27924e-05
0.00465681
0.217459
-1.89608e-08
0.00475461
0.223571
-8.28293e-05
0.00475461
0.223571
-0.000138931
0.00465682
0.217459
-0.000148151
0.00446821
0.205677
-0.000101201
0.0042005
0.189064
0.00387574
0.168704
-2.02838e-08
0.000134753
0.00377358
0.162833
-2.15194e-09
0.000196689
0.00405917
0.183794
0.000183971
0.00429022
0.200776
0.000109433
0.0044505
0.212758
-2.17431e-08
0.00453285
0.218955
-0.000109476
0.00453285
0.218955
-0.00018401
0.0044505
0.212758
-0.000196723
0.00429023
0.200776
-0.00013478
0.00405918
0.183794
0.00377359
0.162832
-2.2382e-08
0.000171195
0.00337414
0.150691
-2.78511e-09
0.000248098
0.00359874
0.171869
0.000230824
0.00377615
0.188889
0.000136848
0.00389713
0.200822
-2.39716e-08
0.00395871
0.206969
-0.000136895
0.00395872
0.206969
-0.000230867
0.00389713
0.200822
-0.000248134
0.00377615
0.188889
-0.000171224
0.00359875
0.171869
0.00337415
0.150691
-2.38948e-08
0.000205955
0.133076
-3.44031e-09
0.00275138
0.000297468
0.154248
0.00290077
0.000276225
0.171037
0.00301903
0.000163449
0.182716
0.0031001
-2.54223e-08
0.188704
0.00314127
-0.000163498
0.188704
0.00314127
-0.00027627
0.182716
0.0031001
-0.000297506
0.171037
0.00301903
-0.000205984
0.154248
0.00290078
0.133076
-2.46781e-08
0.00275138
-1.37872e-06
7.76408e-05
0.0283629
-1.42123e-10
-1.98465e-06
8.52442e-05
0.031301
-1.59282e-06
9.17507e-05
0.0337719
-8.78577e-07
9.68177e-05
0.0355591
-6.37949e-10
9.94948e-05
0.0364973
8.77313e-07
9.94949e-05
0.0364973
1.59159e-06
9.6818e-05
0.0355591
1.98346e-06
9.17512e-05
0.0337718
1.37756e-06
8.52448e-05
0.031301
7.76413e-05
0.0283629
-1.12095e-09
-1.61143e-06
0.000292356
0.0763019
-3.01865e-10
-2.42374e-06
0.000322945
0.0842326
-1.93863e-06
0.000349372
0.0908816
-1.02752e-06
0.000369412
0.0956792
-2.41809e-09
0.0003801
0.0981939
1.02276e-06
0.000380101
0.0981939
1.93408e-06
0.000369414
0.0956792
2.4195e-06
0.000349373
0.0908816
1.60747e-06
0.000322947
0.0842326
0.000292358
0.0763019
-3.64334e-09
8.74136e-07
0.00060219
0.113418
-4.63119e-10
1.15372e-06
0.000666205
0.125386
1.36042e-06
0.000721394
0.135381
9.50909e-07
0.000762633
0.142574
-4.58669e-09
0.000784624
0.146338
-9.59912e-07
0.000784624
0.146338
-1.36892e-06
0.000762635
0.142574
-1.16136e-06
0.000721397
0.135381
-8.80558e-07
0.000666209
0.125386
0.000602194
0.113418
-6.24163e-09
6.04683e-06
0.000948515
0.140448
-6.38357e-10
8.94363e-06
0.00104786
0.155591
8.66682e-06
0.00113317
0.168176
5.30756e-06
0.00119615
0.177207
-7.01515e-09
0.0012296
0.181925
-5.32129e-06
0.0012296
0.181925
-8.6797e-06
0.00119615
0.177207
-8.95521e-06
0.00113318
0.168176
-6.05688e-06
0.00104786
0.155591
0.000948521
0.140448
-8.97131e-09
1.41544e-05
0.00126774
0.158141
-8.48023e-10
2.09893e-05
0.001396
0.175683
1.99803e-05
0.00150529
0.190184
1.20529e-05
0.00158498
0.200555
-9.58853e-09
0.00162709
0.205963
-1.20716e-05
0.00162709
0.205963
-1.99978e-05
0.00158499
0.200555
-2.10049e-05
0.00150529
0.190184
-1.41676e-05
0.00139601
0.175683
0.00126775
0.158141
-1.15745e-08
2.49605e-05
0.00150451
0.167253
-1.11329e-09
3.69203e-05
0.00164907
0.186511
3.49405e-05
0.00177081
0.202334
2.09674e-05
0.00185845
0.213607
-1.21795e-08
0.00190444
0.219473
-2.09911e-05
0.00190444
0.219473
-3.49626e-05
0.00185845
0.213607
-3.69396e-05
0.00177081
0.202334
-2.49767e-05
0.00164908
0.186511
0.00150452
0.167253
-1.39589e-08
3.80243e-05
0.0016206
0.16855
-1.46318e-09
5.60533e-05
0.00176589
0.188929
5.28714e-05
0.00188637
0.205565
3.16337e-05
0.0019719
0.217367
-1.46656e-08
0.00201644
0.223491
-3.16622e-05
0.00201645
0.223491
-5.28978e-05
0.00197191
0.217367
-5.60762e-05
0.00188638
0.205565
-3.80432e-05
0.0017659
0.188929
0.00162061
0.168549
-1.60588e-08
5.28629e-05
0.00159961
0.162801
-1.87759e-09
7.76516e-05
0.00173062
0.183804
7.29789e-05
0.0018373
0.20083
4.35377e-05
0.00191185
0.212848
-1.69096e-08
0.00195031
0.219065
-4.35706e-05
0.00195031
0.219065
-7.30091e-05
0.00191185
0.212848
-7.76777e-05
0.0018373
0.20083
-5.2884e-05
0.00173063
0.183804
0.00159962
0.162801
-1.77878e-08
6.94467e-05
0.00144746
0.150774
-2.36878e-09
0.000101134
0.00155318
0.172015
9.44371e-05
0.00163719
0.189096
5.61149e-05
0.00169484
0.201078
-1.87436e-08
0.00172429
0.207251
-5.61513e-05
0.00172429
0.207251
-9.44704e-05
0.00169485
0.201078
-0.000101162
0.0016372
0.189096
-6.94694e-05
0.00155319
0.172015
0.00144747
0.150774
-1.90703e-08
8.5584e-05
0.133246
-2.86084e-09
0.00119194
0.000124243
0.154499
0.00126418
0.000115809
0.171361
0.0013216
6.86812e-05
0.183097
0.00136111
-1.99871e-08
0.189116
0.00138124
-6.87199e-05
0.189116
0.00138124
-0.000115844
0.183097
0.00136112
-0.000124273
0.171361
0.0013216
-8.56076e-05
0.154499
0.00126418
0.133246
-1.97992e-08
0.00119195
-3.97687e-07
2.03359e-05
0.0283429
-1.02252e-10
-6.11699e-07
2.25249e-05
0.0312786
-4.90102e-07
2.4522e-05
0.0337472
-2.71606e-07
2.61635e-05
0.0355328
-4.40078e-10
2.70485e-05
0.03647
2.70733e-07
2.70485e-05
0.03647
4.89248e-07
2.61637e-05
0.0355327
6.10859e-07
2.45223e-05
0.0337472
3.96859e-07
2.25253e-05
0.0312786
2.03363e-05
0.0283429
-8.16497e-10
-5.07641e-07
9.10584e-05
0.0762317
-2.1748e-10
-8.62841e-07
0.000101364
0.0841541
-7.17645e-07
0.000110531
0.0907955
-3.91574e-07
0.000117662
0.0955874
-1.7123e-09
0.000121509
0.098099
3.882e-07
0.000121509
0.098099
7.1441e-07
0.000117663
0.0955874
8.5979e-07
0.000110532
0.0907954
5.04772e-07
0.000101365
0.0841541
9.10597e-05
0.0762317
-2.6768e-09
3.54394e-07
0.00020223
0.113307
-3.58367e-10
3.33466e-07
0.0002253
0.125262
3.67305e-07
0.000245555
0.135246
2.55124e-07
0.000260956
0.142431
-3.29376e-09
0.000269241
0.146191
-2.61591e-07
0.000269241
0.146191
-3.73441e-07
0.000260958
0.142431
-3.39006e-07
0.000245557
0.135246
-3.59058e-07
0.000225303
0.125262
0.000202233
0.113307
-4.61728e-09
2.27871e-06
0.000333411
0.140315
-5.18431e-10
3.21623e-06
0.000370814
0.155444
3.06149e-06
0.000403386
0.168018
1.859e-06
0.000427771
0.177041
-5.088e-09
0.00044082
0.181756
-1.86897e-06
0.000440821
0.181756
-3.07086e-06
0.000427773
0.177041
-3.22471e-06
0.00040339
0.168018
-2.28608e-06
0.000370818
0.155444
0.000333415
0.140315
-6.67938e-09
5.4247e-06
0.000460387
0.158008
-7.02651e-10
7.90495e-06
0.000510321
0.175541
7.46863e-06
0.000553378
0.190034
4.48811e-06
0.000585172
0.200401
-7.01226e-09
0.000602083
0.205806
-4.50183e-06
0.000602084
0.205806
-7.48145e-06
0.000585175
0.200401
-7.91638e-06
0.000553383
0.190034
-5.43446e-06
0.000510327
0.175541
0.000460393
0.158008
-8.67262e-09
9.74912e-06
0.000560374
0.167143
-9.20656e-10
1.43245e-05
0.000618222
0.186398
1.35142e-05
0.000667475
0.20222
8.09626e-06
0.000703347
0.213495
-8.96988e-09
0.00072229
0.219361
-8.11377e-06
0.000722292
0.219361
-1.35305e-05
0.00070335
0.213495
-1.43389e-05
0.000667481
0.20222
-9.76116e-06
0.000618228
0.186398
0.000560381
0.167143
-1.05209e-08
1.51098e-05
0.000616148
0.168479
-1.19122e-09
2.2238e-05
0.000675682
0.188865
2.09566e-05
0.000725576
0.205508
1.25319e-05
0.000761377
0.217317
-1.08686e-08
0.000780126
0.223446
-1.2553e-05
0.000780127
0.223446
-2.09762e-05
0.000761381
0.217317
-2.22551e-05
0.000725582
0.205508
-1.51239e-05
0.000675689
0.188865
0.000616155
0.168479
-1.21747e-08
2.13226e-05
0.000618692
0.162777
-1.50154e-09
3.13358e-05
0.000673558
0.183796
2.94534e-05
0.000718665
0.200838
1.75718e-05
0.00075048
0.212871
-1.26041e-08
0.000766972
0.219095
-1.75963e-05
0.000766974
0.219095
-2.94759e-05
0.000750483
0.212871
-3.13553e-05
0.000718671
0.200838
-2.13385e-05
0.000673565
0.183796
0.000618699
0.162777
-1.35667e-08
2.83125e-05
0.000568153
0.150796
-1.86262e-09
4.127e-05
0.000613407
0.172062
3.85656e-05