/*--------------------------------*- C++ -*----------------------------------*\
| =========                 |                                                 |
| \\      /  F ield         | OpenFOAM: The Open Source CFD Toolbox           |
|  \\    /   O peration     | Version:  2106                                  |
|   \\  /    A nd           | Website:  www.openfoam.com                      |
|    \\/     M anipulation  |                                                 |
\*---------------------------------------------------------------------------*/
FoamFile
{
    version     2.0;
    format      ascii;
    arch        "LSB;label=32;scalar=64";
    class       volVectorField;
    location    "0.89";
    object      U;
}
// * * * * * * * * * * * * * * * * * * * * * * * * * * * * * * * * * * * * * //

dimensions      [0 1 -1 0 0 0 0];

internalField   nonuniform List<vector> 
10000
(
(0.0630548 0.0742998 0.34785)
(0.0537782 0.0844993 0.362445)
(0.0401624 0.0937224 0.373899)
(0.0249152 0.100155 0.38181)
(0.00844367 0.103481 0.38583)
(-0.00844367 0.103481 0.38583)
(-0.0249153 0.100155 0.38181)
(-0.0401624 0.0937224 0.373899)
(-0.0537782 0.0844993 0.362445)
(-0.0630548 0.0742998 0.34785)
(0.173413 0.205735 0.733606)
(0.146383 0.233191 0.753409)
(0.109283 0.25734 0.768163)
(0.0676139 0.274056 0.778138)
(0.0228871 0.282678 0.783126)
(-0.0228871 0.282678 0.783126)
(-0.0676139 0.274056 0.778138)
(-0.109283 0.25734 0.768163)
(-0.146383 0.233191 0.753409)
(-0.173413 0.205735 0.733606)
(0.224382 0.266433 0.931051)
(0.187287 0.298391 0.947001)
(0.138928 0.326296 0.958151)
(0.0855304 0.345387 0.965511)
(0.0288807 0.355169 0.96912)
(-0.0288807 0.355169 0.96912)
(-0.0855304 0.345387 0.965511)
(-0.138928 0.326296 0.958151)
(-0.187287 0.298391 0.947001)
(-0.224382 0.266433 0.931051)
(0.239519 0.283949 1.03094)
(0.197963 0.314062 1.04152)
(0.145941 0.34041 1.04824)
(0.0894315 0.358233 1.05254)
(0.0301295 0.367307 1.05459)
(-0.0301296 0.367307 1.05459)
(-0.0894315 0.358233 1.05254)
(-0.145941 0.34041 1.04824)
(-0.197963 0.314062 1.04152)
(-0.239519 0.283949 1.03094)
(0.237566 0.281133 1.07966)
(0.194736 0.307336 1.08566)
(0.142807 0.330401 1.08881)
(0.0871603 0.345869 1.09071)
(0.0293078 0.353696 1.09156)
(-0.0293079 0.353696 1.09156)
(-0.0871604 0.345869 1.09071)
(-0.142807 0.330401 1.08881)
(-0.194736 0.307336 1.08566)
(-0.237566 0.281133 1.07966)
(0.226474 0.267519 1.1009)
(0.184239 0.289093 1.1035)
(0.13447 0.308238 1.10416)
(0.081769 0.321002 1.10441)
(0.0274466 0.327423 1.10445)
(-0.0274467 0.327423 1.10445)
(-0.0817691 0.321002 1.10441)
(-0.13447 0.308238 1.10416)
(-0.18424 0.289093 1.1035)
(-0.226474 0.267519 1.1009)
(0.210012 0.247441 1.10756)
(0.169554 0.264146 1.10784)
(0.123197 0.279117 1.10692)
(0.0746519 0.28908 1.10615)
(0.0250157 0.29407 1.10571)
(-0.0250158 0.29407 1.10571)
(-0.074652 0.28908 1.10615)
(-0.123197 0.279117 1.10692)
(-0.169555 0.264146 1.10784)
(-0.210012 0.247441 1.10756)
(0.190529 0.223644 1.10686)
(0.15264 0.235524 1.10567)
(0.11044 0.24631 1.10386)
(0.0667035 0.253523 1.10254)
(0.0223169 0.257136 1.10185)
(-0.0223171 0.257136 1.10185)
(-0.0667037 0.253523 1.10254)
(-0.11044 0.24631 1.10386)
(-0.15264 0.235524 1.10567)
(-0.190529 0.223644 1.10686)
(0.169569 0.197931 1.10284)
(0.134879 0.205174 1.10076)
(0.0971934 0.211902 1.09853)
(0.0585196 0.216532 1.09697)
(0.019549 0.218871 1.09618)
(-0.0195492 0.218871 1.09618)
(-0.0585198 0.216532 1.09697)
(-0.0971936 0.211902 1.09853)
(-0.134879 0.205174 1.10076)
(-0.169569 0.197931 1.10284)
(0.148303 0.171964 1.09775)
(0.11748 0.173071 1.09521)
(0.0840697 0.176374 1.09283)
(0.0504313 0.178781 1.09123)
(0.0168172 0.180018 1.09043)
(-0.0168173 0.180018 1.09043)
(-0.0504315 0.178781 1.09123)
(-0.0840699 0.176374 1.09283)
(-0.11748 0.17307 1.09521)
(-0.148303 0.171964 1.09775)
(0.0112848 0.014415 0.268641)
(0.00948082 0.0177321 0.281)
(0.00715882 0.0203966 0.291121)
(0.00453175 0.0222233 0.298166)
(0.00155053 0.023175 0.301772)
(-0.00155055 0.023175 0.301772)
(-0.00453176 0.0222233 0.298166)
(-0.00715883 0.0203966 0.291121)
(-0.00948083 0.017732 0.281)
(-0.0112848 0.014415 0.268641)
(0.0548526 0.0663689 0.634509)
(0.0471016 0.0798504 0.656627)
(0.0360482 0.0914024 0.674365)
(0.0227898 0.0995878 0.686564)
(0.00779888 0.103884 0.692756)
(-0.00779892 0.103884 0.692756)
(-0.0227899 0.0995878 0.686564)
(-0.0360482 0.0914024 0.674365)
(-0.0471017 0.0798504 0.656627)
(-0.0548526 0.0663689 0.634509)
(0.098567 0.117731 0.883418)
(0.0840955 0.13924 0.907427)
(0.0640219 0.157698 0.926259)
(0.0402327 0.170725 0.939053)
(0.0137271 0.177528 0.945496)
(-0.0137272 0.177528 0.945496)
(-0.0402328 0.170725 0.939053)
(-0.064022 0.157698 0.926259)
(-0.0840955 0.139239 0.907427)
(-0.098567 0.117731 0.883418)
(0.134938 0.159988 1.0525)
(0.11415 0.186329 1.07466)
(0.0863444 0.208827 1.09163)
(0.0539532 0.224592 1.10302)
(0.0183563 0.23278 1.10871)
(-0.0183564 0.23278 1.10871)
(-0.0539533 0.224592 1.10302)
(-0.0863445 0.208827 1.09163)
(-0.11415 0.186329 1.07466)
(-0.134938 0.159988 1.0525)
(0.160982 0.189782 1.16642)
(0.135018 0.217874 1.18518)
(0.101489 0.241707 1.19915)
(0.0630907 0.258287 1.20841)
(0.0214101 0.266851 1.213)
(-0.0214102 0.266851 1.213)
(-0.0630909 0.258287 1.20841)
(-0.10149 0.241707 1.19915)
(-0.135018 0.217874 1.18518)
(-0.160982 0.189782 1.16642)
(0.176743 0.207286 1.24204)
(0.146984 0.234623 1.25698)
(0.10982 0.257614 1.26778)
(0.0679435 0.273501 1.27483)
(0.0230021 0.281664 1.27829)
(-0.0230023 0.281664 1.27829)
(-0.0679436 0.273501 1.27483)
(-0.10982 0.257614 1.26778)
(-0.146984 0.234623 1.25698)
(-0.176743 0.207286 1.24204)
(0.183288 0.213854 1.29129)
(0.151127 0.238522 1.30261)
(0.112254 0.259024 1.31052)
(0.0691367 0.273107 1.3156)
(0.0233536 0.280308 1.31806)
(-0.0233538 0.280308 1.31806)
(-0.0691369 0.273107 1.3156)
(-0.112254 0.259024 1.31052)
(-0.151127 0.238522 1.30261)
(-0.183289 0.213854 1.29129)
(0.181969 0.21113 1.32257)
(0.148742 0.231737 1.33077)
(0.109856 0.248587 1.33628)
(0.067372 0.260106 1.33975)
(0.0227092 0.265978 1.34141)
(-0.0227094 0.265978 1.34141)
(-0.0673722 0.260106 1.33975)
(-0.109857 0.248587 1.33628)
(-0.148742 0.231737 1.33077)
(-0.181969 0.21113 1.32257)
(0.174254 0.2008 1.34176)
(0.141257 0.216406 1.34746)
(0.103738 0.228806 1.35112)
(0.0633481 0.237301 1.35336)
(0.0213075 0.241627 1.35441)
(-0.0213078 0.241627 1.35441)
(-0.0633484 0.237301 1.35336)
(-0.103739 0.228806 1.35112)
(-0.141257 0.216406 1.34746)
(-0.174255 0.2008 1.34176)
(0.161724 0.185694 1.35302)
(0.130229 0.193687 1.35686)
(0.0948566 0.201285 1.35915)
(0.057633 0.206526 1.36047)
(0.0193377 0.209192 1.36107)
(-0.019338 0.209192 1.36107)
(-0.0576333 0.206526 1.36047)
(-0.0948569 0.201285 1.35915)
(-0.130229 0.193687 1.35686)
(-0.161724 0.185694 1.35302)
(0.00113124 0.00126339 0.158881)
(0.00114244 0.00161336 0.167246)
(0.000890574 0.00202487 0.174231)
(0.000596137 0.00232969 0.179176)
(0.000207728 0.0024986 0.181735)
(-0.000207745 0.0024986 0.181735)
(-0.000596154 0.00232968 0.179176)
(-0.000890589 0.00202487 0.174231)
(-0.00114245 0.00161335 0.167246)
(-0.00113126 0.00126338 0.158881)
(0.0181656 0.0210791 0.445122)
(0.0163363 0.0257165 0.465484)
(0.0127856 0.0300804 0.482206)
(0.00821164 0.0333036 0.493943)
(0.00282956 0.0350351 0.499984)
(-0.00282962 0.035035 0.499984)
(-0.0082117 0.0333036 0.493943)
(-0.0127856 0.0300804 0.482206)
(-0.0163364 0.0257165 0.465484)
(-0.0181656 0.0210791 0.445122)
(0.0414084 0.0481987 0.690618)
(0.036572 0.0579071 0.718413)
(0.0284126 0.0667624 0.740875)
(0.0180992 0.0732376 0.756509)
(0.00621427 0.0766859 0.764516)
(-0.00621437 0.0766859 0.764516)
(-0.0180993 0.0732375 0.756509)
(-0.0284127 0.0667624 0.740875)
(-0.0365721 0.0579071 0.718413)
(-0.0414084 0.0481987 0.690618)
(0.0664859 0.0774502 0.894832)
(0.0579515 0.0917463 0.926258)
(0.04469 0.104537 0.951231)
(0.0282861 0.113791 0.968467)
(0.00968249 0.118684 0.97725)
(-0.00968262 0.118684 0.97725)
(-0.0282862 0.113791 0.968467)
(-0.0446902 0.104537 0.951231)
(-0.0579516 0.0917463 0.926258)
(-0.066486 0.0774501 0.894832)
(0.08889 0.103431 1.06122)
(0.076601 0.120835 1.09347)
(0.0586532 0.136177 1.11866)
(0.0369154 0.14717 1.1359)
(0.0126021 0.152945 1.14465)
(-0.0126022 0.152945 1.14465)
(-0.0369156 0.14717 1.1359)
(-0.0586533 0.136177 1.11866)
(-0.0766011 0.120835 1.09347)
(-0.0888901 0.103431 1.06122)
(0.10636 0.123439 1.19473)
(0.0906951 0.142186 1.2259)
(0.0689703 0.158485 1.24984)
(0.043183 0.170062 1.26609)
(0.0147043 0.176106 1.27429)
(-0.0147045 0.176106 1.27429)
(-0.0431832 0.170062 1.26609)
(-0.0689705 0.158485 1.24984)
(-0.0906953 0.142186 1.2259)
(-0.10636 0.123439 1.19473)
(0.118038 0.136499 1.30052)
(0.099632 0.154888 1.32947)
(0.0752585 0.170639 1.35133)
(0.0468857 0.181736 1.36605)
(0.0159261 0.187499 1.37344)
(-0.0159264 0.187499 1.37344)
(-0.0468859 0.181736 1.36605)
(-0.0752587 0.170639 1.35133)
(-0.0996322 0.154888 1.32946)
(-0.118038 0.136499 1.30052)
(0.123799 0.142498 1.38342)
(0.103444 0.159041 1.40953)
(0.0776201 0.172961 1.42897)
(0.048122 0.182694 1.44195)
(0.0163068 0.187725 1.44844)
(-0.0163071 0.187725 1.44844)
(-0.0481223 0.182694 1.44195)
(-0.0776203 0.172961 1.42897)
(-0.103445 0.159041 1.40953)
(-0.123799 0.142498 1.38342)
(0.124044 0.141879 1.44756)
(0.102628 0.155386 1.47073)
(0.0764734 0.166421 1.48771)
(0.0471673 0.174104 1.49895)
(0.0159423 0.178059 1.50453)
(-0.0159427 0.178059 1.50453)
(-0.0471676 0.174104 1.49895)
(-0.0764737 0.166421 1.48771)
(-0.102628 0.155386 1.47073)
(-0.124044 0.141879 1.44756)
(0.119598 0.136469 1.49632)
(0.0979838 0.144588 1.51705)
(0.0722938 0.151931 1.53168)
(0.0443128 0.157017 1.54121)
(0.0149319 0.15962 1.54591)
(-0.0149323 0.15962 1.54591)
(-0.0443132 0.157017 1.54121)
(-0.0722941 0.151931 1.53168)
(-0.0979841 0.144588 1.51705)
(-0.119598 0.136469 1.49632)
(0.000719143 0.000944428 0.138972)
(0.000562151 0.00118417 0.145832)
(0.000385021 0.00135421 0.151418)
(0.000238794 0.00145486 0.155339)
(7.99655e-05 0.00150525 0.157362)
(-7.99819e-05 0.00150525 0.157362)
(-0.00023881 0.00145486 0.155339)
(-0.000385035 0.0013542 0.151418)
(-0.000562164 0.00118417 0.145832)
(-0.000719153 0.00094442 0.138972)
(0.00710073 0.00849017 0.398499)
(0.00616629 0.0104649 0.416706)
(0.00474198 0.0121738 0.431445)
(0.00302546 0.0134006 0.441762)
(0.00103906 0.0140534 0.447071)
(-0.00103911 0.0140534 0.447071)
(-0.00302551 0.0134006 0.441762)
(-0.00474203 0.0121737 0.431445)
(-0.00616633 0.0104649 0.416706)
(-0.00710077 0.00849015 0.398499)
(0.017416 0.0205633 0.633458)
(0.0151935 0.0250374 0.660336)
(0.0117591 0.028964 0.681928)
(0.00749171 0.0318151 0.696978)
(0.00257282 0.0333318 0.704702)
(-0.00257292 0.0333318 0.704702)
(-0.0074918 0.0318151 0.696978)
(-0.0117591 0.028964 0.681928)
(-0.0151936 0.0250373 0.660336)
(-0.0174161 0.0205633 0.633458)
(0.0298831 0.0350837 0.841917)
(0.0259847 0.0422065 0.874764)
(0.0200848 0.0484572 0.900902)
(0.0127554 0.052991 0.919031)
(0.00437437 0.0553955 0.928307)
(-0.0043745 0.0553955 0.928307)
(-0.0127556 0.052991 0.919031)
(-0.0200849 0.0484572 0.900902)
(-0.0259848 0.0422064 0.874764)
(-0.0298831 0.0350837 0.841917)
(0.0424335 0.0495961 1.02383)
(0.0366705 0.0589126 1.06021)
(0.0282306 0.0670421 1.08885)
(0.0178578 0.0729093 1.10861)
(0.00611252 0.0760077 1.11869)
(-0.0061127 0.0760077 1.11869)
(-0.0178579 0.0729093 1.10861)
(-0.0282308 0.0670421 1.08885)
(-0.0366706 0.0589126 1.06021)
(-0.0424336 0.049596 1.02383)
(0.0535632 0.0623274 1.18037)
(0.0459376 0.0730324 1.21824)
(0.0351785 0.0822864 1.24772)
(0.0221556 0.088921 1.26794)
(0.00756735 0.0924078 1.27822)
(-0.00756757 0.0924078 1.27822)
(-0.0221558 0.0889209 1.26794)
(-0.0351787 0.0822863 1.24772)
(-0.0459377 0.0730323 1.21824)
(-0.0535633 0.0623273 1.18037)
(0.0622778 0.0721274 1.31336)
(0.0529562 0.0832588 1.35109)
(0.0403108 0.0927594 1.38014)
(0.0252703 0.0995202 1.39996)
(0.0086114 0.103055 1.41)
(-0.00861166 0.103055 1.41)
(-0.0252705 0.0995202 1.39996)
(-0.040311 0.0927594 1.38014)
(-0.0529564 0.0832588 1.35109)
(-0.0622779 0.0721274 1.31336)
(0.0679802 0.0783079 1.42484)
(0.0572749 0.088883 1.46125)
(0.0433182 0.0977609 1.48898)
(0.0270241 0.104027 1.5078)
(0.00918671 0.107287 1.5173)
(-0.009187 0.107287 1.5173)
(-0.0270244 0.104027 1.5078)
(-0.0433184 0.0977609 1.48898)
(-0.0572751 0.0888829 1.46125)
(-0.0679804 0.0783079 1.42484)
(0.0704731 0.0806029 1.5168)
(0.058809 0.0897343 1.55122)
(0.0441623 0.0971852 1.57712)
(0.027402 0.102407 1.59455)
(0.0092898 0.105108 1.60329)
(-0.00929012 0.105108 1.60329)
(-0.0274023 0.102407 1.59454)
(-0.0441626 0.0971852 1.57712)
(-0.0588093 0.0897343 1.55122)
(-0.0704733 0.0806028 1.5168)
(0.0699381 0.0798078 1.59095)
(0.0577502 0.0858766 1.62364)
(0.0429257 0.0911511 1.64733)
(0.0264575 0.0948122 1.66305)
(0.00893986 0.0966914 1.67088)
(-0.0089402 0.0966914 1.67088)
(-0.0264579 0.0948122 1.66305)
(-0.0429261 0.0911511 1.64733)
(-0.0577505 0.0858766 1.62364)
(-0.0699384 0.0798077 1.59095)
(0.000131674 0.000144051 0.127953)
(0.000121957 0.000188797 0.134344)
(9.01151e-05 0.000234625 0.139539)
(6.16451e-05 0.000266746 0.143192)
(2.12896e-05 0.000284957 0.145077)
(-2.13037e-05 0.000284956 0.145077)
(-6.16587e-05 0.000266743 0.143192)
(-9.01276e-05 0.00023462 0.139539)
(-0.000121968 0.000188791 0.134344)
(-0.000131684 0.000144044 0.127953)
(0.00253416 0.00293131 0.371068)
(0.00226666 0.00363397 0.388451)
(0.00177542 0.00428109 0.402533)
(0.00114749 0.00476259 0.412415)
(0.000396221 0.00502395 0.417507)
(-0.000396266 0.00502395 0.417507)
(-0.00114753 0.00476258 0.412414)
(-0.00177547 0.00428108 0.402533)
(-0.0022667 0.00363395 0.388451)
(-0.0025342 0.00293129 0.371068)
(0.00690308 0.00800818 0.596473)
(0.00613311 0.00981736 0.622859)
(0.00480735 0.0114603 0.64412)
(0.00308941 0.0126826 0.658999)
(0.00106516 0.0133415 0.666653)
(-0.00106524 0.0133415 0.666653)
(-0.00308949 0.0126826 0.658999)
(-0.00480742 0.0114603 0.64412)
(-0.00613317 0.00981733 0.622858)
(-0.00690313 0.00800815 0.596473)
(0.0126697 0.0147004 0.802653)
(0.011183 0.0178253 0.835964)
(0.00874029 0.0206367 0.862623)
(0.00559304 0.0227179 0.881213)
(0.00192502 0.023834 0.890757)
(-0.00192513 0.023834 0.890757)
(-0.00559315 0.0227179 0.881213)
(-0.00874039 0.0206367 0.862623)
(-0.0111831 0.0178252 0.835964)
(-0.0126698 0.0147003 0.802653)
(0.0189511 0.0219529 0.988865)
(0.0166066 0.0263069 1.02707)
(0.0129213 0.030188 1.05741)
(0.00823373 0.0330418 1.07847)
(0.00282839 0.0345648 1.08927)
(-0.00282854 0.0345648 1.08927)
(-0.00823387 0.0330418 1.07847)
(-0.0129214 0.0301879 1.05741)
(-0.0166068 0.0263068 1.02707)
(-0.0189512 0.0219529 0.988865)
(0.0249706 0.028844 1.15498)
(0.0217079 0.0341168 1.19621)
(0.0167992 0.0387666 1.22864)
(0.0106575 0.0421602 1.25108)
(0.00365319 0.0439619 1.26254)
(-0.00365338 0.0439619 1.26254)
(-0.0106577 0.0421602 1.25108)
(-0.0167994 0.0387666 1.22864)
(-0.0217081 0.0341168 1.19621)
(-0.0249707 0.028844 1.15498)
(0.0301068 0.034646 1.30132)
(0.0259463 0.0403825 1.34388)
(0.0199567 0.0453757 1.37706)
(0.0126012 0.0489902 1.39991)
(0.00430946 0.050899 1.41155)
(-0.00430968 0.050899 1.41155)
(-0.0126015 0.0489902 1.39991)
(-0.0199569 0.0453756 1.37706)
(-0.0259465 0.0403825 1.34388)
(-0.0301069 0.034646 1.30132)
(0.0339017 0.0388223 1.42842)
(0.0289446 0.0444973 1.47091)
(0.0221144 0.0493574 1.50375)
(0.0138933 0.0528434 1.52624)
(0.00473929 0.0546735 1.53766)
(-0.00473955 0.0546735 1.53766)
(-0.0138936 0.0528434 1.52624)
(-0.0221147 0.0493574 1.50375)
(-0.0289448 0.0444972 1.47091)
(-0.0339018 0.0388223 1.42842)
(0.0361081 0.0410637 1.53686)
(0.0305203 0.0461607 1.57834)
(0.0231391 0.050402 1.61003)
(0.014452 0.053414 1.63157)
(0.00491525 0.054984 1.64243)
(-0.00491553 0.054984 1.64243)
(-0.0144523 0.053414 1.63157)
(-0.0231394 0.050402 1.61003)
(-0.0305206 0.0461606 1.57834)
(-0.0361083 0.0410637 1.53686)
(0.0366971 0.0416802 1.62705)
(0.030639 0.0452826 1.66766)
(0.0229702 0.048399 1.69752)
(0.0142406 0.0505803 1.71752)
(0.00482544 0.0517062 1.72754)
(-0.00482574 0.0517062 1.72754)
(-0.0142409 0.0505803 1.71752)
(-0.0229705 0.048399 1.69752)
(-0.0306393 0.0452826 1.66766)
(-0.0366973 0.0416802 1.62705)
(8.03158e-05 0.000108377 0.12496)
(5.62562e-05 0.000137479 0.131151)
(3.45078e-05 0.000154342 0.136152)
(2.11171e-05 0.000162684 0.139662)
(6.86113e-06 0.00016668 0.141472)
(-6.87247e-06 0.000166679 0.141472)
(-2.11283e-05 0.000162681 0.139662)
(-3.45177e-05 0.000154338 0.136152)
(-5.62652e-05 0.000137474 0.131151)
(-8.03234e-05 0.00010837 0.12496)
(0.00104899 0.00125264 0.3625)
(0.000901142 0.00155366 0.379434)
(0.000689221 0.00180705 0.393094)
(0.000440175 0.00198896 0.40267)
(0.000151092 0.00208624 0.407602)
(-0.000151129 0.00208624 0.407602)
(-0.000440211 0.00198895 0.40267)
(-0.000689254 0.00180704 0.393094)
(-0.000901172 0.00155365 0.379434)
(-0.00104901 0.00125262 0.3625)
(0.00289113 0.00340293 0.583955)
(0.00252507 0.00418572 0.609906)
(0.00196062 0.00486879 0.630766)
(0.00125448 0.00537022 0.645361)
(0.000431646 0.00563918 0.65287)
(-0.000431712 0.00563917 0.65287)
(-0.00125454 0.00537021 0.645361)
(-0.00196068 0.00486878 0.630766)
(-0.00252513 0.00418569 0.609906)
(-0.00289117 0.0034029 0.583955)
(0.00541957 0.00633954 0.788594)
(0.00474662 0.00772875 0.821792)
(0.0036969 0.00895318 0.848341)
(0.00236325 0.00985558 0.866871)
(0.000813101 0.0103391 0.87639)
(-0.000813196 0.0103391 0.87639)
(-0.00236334 0.00985556 0.866871)
(-0.00369699 0.00895316 0.848341)
(-0.0047467 0.00772872 0.821792)
(-0.00541963 0.00633951 0.788594)
(0.00830615 0.00967127 0.975918)
(0.00725838 0.0116692 1.0146)
(0.00564611 0.0134306 1.04533)
(0.00360079 0.0147261 1.06672)
(0.0012376 0.0154182 1.07769)
(-0.00123773 0.0154182 1.07769)
(-0.00360091 0.014726 1.06672)
(-0.00564622 0.0134306 1.04533)
(-0.00725849 0.0116692 1.0146)
(-0.00830623 0.00967124 0.975918)
(0.0112165 0.0130022 1.14565)
(0.00975309 0.0155006 1.1881)
(0.00756015 0.0176912 1.22158)
(0.00480553 0.0192943 1.24481)
(0.00164904 0.0201476 1.2567)
(-0.00164919 0.0201476 1.2567)
(-0.00480568 0.0192943 1.24481)
(-0.00756029 0.0176912 1.22158)
(-0.00975321 0.0155006 1.18809)
(-0.0112166 0.0130022 1.14565)
(0.0138417 0.0159702 1.2977)
(0.0119542 0.0187736 1.34229)
(0.00922059 0.0212079 1.37721)
(0.00583734 0.0229772 1.40135)
(0.00199909 0.0239144 1.41367)
(-0.00199928 0.0239144 1.41367)
(-0.00583752 0.0229772 1.40135)
(-0.00922076 0.0212079 1.37721)
(-0.0119543 0.0187736 1.34229)
(-0.0138418 0.0159701 1.2977)
(0.015921 0.018268 1.43205)
(0.0136385 0.0211252 1.47735)
(0.0104566 0.023572 1.51256)
(0.00658882 0.0253349 1.53678)
(0.00225107 0.0262635 1.54911)
(-0.00225128 0.0262635 1.54911)
(-0.00658903 0.0253349 1.53678)
(-0.0104568 0.023572 1.51256)
(-0.0136386 0.0211252 1.47735)
(-0.0159211 0.0182679 1.43205)
(0.0172823 0.0196807 1.5486)
(0.0146669 0.0223252 1.59358)
(0.0111621 0.0245298 1.62818)
(0.00699292 0.0261016 1.65179)
(0.00238208 0.0269232 1.66374)
(-0.00238232 0.0269232 1.66374)
(-0.00699315 0.0261016 1.65179)
(-0.0111623 0.0245298 1.62818)
(-0.0146671 0.0223252 1.59358)
(-0.0172824 0.0196807 1.5486)
(0.0178603 0.0203087 1.64706)
(0.0149713 0.022261 1.69182)
(0.0112679 0.0239352 1.72496)
(0.00700649 0.0251105 1.74726)
(0.0023777 0.0257184 1.75846)
(-0.00237795 0.0257184 1.75846)
(-0.00700673 0.0251105 1.74726)
(-0.0112681 0.0239352 1.72496)
(-0.0149715 0.022261 1.69182)
(-0.0178605 0.0203087 1.64706)
(1.23946e-05 1.52563e-05 0.123449)
(8.43954e-06 2.08435e-05 0.129572)
(4.74001e-06 2.45105e-05 0.134514)
(3.49075e-06 2.66136e-05 0.137985)
(1.17078e-06 2.78349e-05 0.139774)
(-1.17945e-06 2.78342e-05 0.139774)
(-3.49917e-06 2.66116e-05 0.137985)
(-4.74777e-06 2.45075e-05 0.134514)
(-8.44658e-06 2.08394e-05 0.129572)
(-1.24003e-05 1.52515e-05 0.123449)
(0.000364854 0.000426346 0.35823)
(0.000318529 0.000532177 0.374992)
(0.000246728 0.000624497 0.388506)
(0.000159277 0.000692719 0.397983)
(5.49293e-05 0.000729792 0.402865)
(-5.4958e-05 0.00072979 0.402865)
(-0.000159305 0.000692714 0.397983)
(-0.000246753 0.000624489 0.388506)
(-0.000318552 0.000532166 0.374992)
(-0.000364873 0.000426333 0.35823)
(0.00108951 0.00126768 0.577573)
(0.000961003 0.00156795 0.603336)
(0.000752282 0.00183506 0.624042)
(0.000484313 0.00203457 0.638537)
(0.000167121 0.00214258 0.645997)
(-0.000167171 0.00214257 0.645997)
(-0.000484362 0.00203456 0.638537)
(-0.000752327 0.00183505 0.624042)
(-0.000961044 0.00156794 0.603336)
(-0.00108955 0.00126766 0.577573)
(0.00213628 0.00247905 0.781077)
(0.00188636 0.00303944 0.814194)
(0.00147933 0.00354026 0.840691)
(0.000950421 0.00391443 0.859202)
(0.00032779 0.00411641 0.868716)
(-0.000327863 0.00411641 0.868716)
(-0.000950492 0.00391442 0.859202)
(-0.0014794 0.00354024 0.840691)
(-0.00188642 0.00303942 0.814194)
(-0.00213633 0.00247903 0.781077)
(0.0033831 0.00391411 0.968416)
(0.00297951 0.00475106 1.00725)
(0.00233303 0.00549787 1.03814)
(0.00149497 0.00605392 1.05967)
(0.000515022 0.00635308 1.07072)
(-0.00051512 0.00635307 1.07072)
(-0.00149507 0.00605391 1.05967)
(-0.00233312 0.00549785 1.03814)
(-0.00297959 0.00475104 1.00725)
(-0.00338317 0.00391408 0.968415)
(0.0046915 0.00540839 1.13934)
(0.00411176 0.00648834 1.18227)
(0.00320846 0.00744636 1.2162)
(0.00204913 0.00815574 1.23979)
(0.000704814 0.00853584 1.25187)
(-0.000704935 0.00853583 1.25187)
(-0.00204925 0.00815573 1.23979)
(-0.00320857 0.00744634 1.2162)
(-0.00411185 0.00648831 1.18227)
(-0.00469158 0.00540836 1.13934)
(0.00592179 0.00679767 1.29364)
(0.00515596 0.00804311 1.33911)
(0.00400372 0.00913742 1.37481)
(0.00254679 0.0099419 1.39955)
(0.000874244 0.0103708 1.41219)
(-0.000874389 0.0103708 1.41219)
(-0.00254693 0.0099419 1.39955)
(-0.00400386 0.0091374 1.37481)
(-0.00515608 0.0080431 1.33911)
(-0.00592189 0.00679764 1.29364)
(0.0069464 0.0079314 1.4311)
(0.00600016 0.00923265 1.47769)
(0.00463122 0.0103606 1.51401)
(0.00293194 0.011182 1.53907)
(0.00100401 0.0116172 1.55185)
(-0.00100418 0.0116172 1.55185)
(-0.00293211 0.011182 1.53907)
(-0.00463137 0.0103606 1.51401)
(-0.00600029 0.00923264 1.47769)
(-0.00694651 0.00793138 1.4311)
(0.00767288 0.00869568 1.55135)
(0.00656533 0.00992947 1.598)
(0.00502859 0.0109699 1.63401)
(0.00316438 0.0117184 1.65866)
(0.00108025 0.0121116 1.67116)
(-0.00108044 0.0121116 1.67116)
(-0.00316456 0.0117184 1.65866)
(-0.00502876 0.0109699 1.63401)
(-0.00656549 0.00992946 1.598)
(-0.00767301 0.00869567 1.55135)
(0.00805419 0.00912346 1.65375)
(0.00679974 0.010066 1.70056)
(0.00514757 0.0108728 1.73534)
(0.00321354 0.0114425 1.75881)
(0.00109262 0.0117383 1.77062)
(-0.00109282 0.0117383 1.77062)
(-0.00321372 0.0114425 1.75881)
(-0.00514775 0.0108728 1.73534)
(-0.00679991 0.010066 1.70056)
(-0.00805433 0.00912346 1.65375)
(7.82367e-06 1.24456e-05 0.123049)
(3.2453e-06 1.62343e-05 0.129144)
(6.40589e-07 1.73587e-05 0.134059)
(1.54336e-07 1.7385e-05 0.13751)
(-3.02418e-08 1.72954e-05 0.139289)
(2.38877e-08 1.72949e-05 0.139289)
(-1.60489e-07 1.73836e-05 0.13751)
(-6.46268e-07 1.73565e-05 0.134059)
(-3.25052e-06 1.62313e-05 0.129144)
(-7.82789e-06 1.24421e-05 0.123049)
(0.000140284 0.000170462 0.356922)
(0.000116291 0.000213131 0.373605)
(8.71613e-05 0.000246729 0.387045)
(5.53011e-05 0.000270386 0.396468)
(1.89088e-05 0.000282968 0.401321)
(-1.89299e-05 0.000282967 0.401321)
(-5.53215e-05 0.000270382 0.396468)
(-8.71803e-05 0.000246722 0.387045)
(-0.000116309 0.000213123 0.373605)
(-0.000140298 0.000170452 0.356922)
(0.000421873 0.000499192 0.575473)
(0.000364322 0.000619333 0.601137)
(0.00028159 0.0007217 0.621751)
(0.0001801 0.000796886 0.63618)
(6.19535e-05 0.00083729 0.643605)
(-6.1991e-05 0.000837288 0.643605)
(-0.000180136 0.00079688 0.63618)
(-0.000281623 0.000721691 0.62175)
(-0.000364353 0.00061932 0.601137)
(-0.000421899 0.000499178 0.575473)
(0.000839571 0.00098318 0.778488)
(0.000733791 0.00121059 0.811537)
(0.000572186 0.00140935 0.837972)
(0.000366647 0.00155685 0.85644)
(0.000126304 0.00163627 0.865933)
(-0.000126358 0.00163627 0.865933)
(-0.0003667 0.00155684 0.85644)
(-0.000572236 0.00140933 0.837971)
(-0.000733836 0.00121057 0.811537)
(-0.00083961 0.000983162 0.778488)
(0.00135274 0.00157382 0.965765)
(0.00118554 0.0019202 1.00462)
(0.000926254 0.00222546 1.03553)
(0.000593161 0.00245227 1.05708)
(0.000204302 0.00257426 1.06814)
(-0.000204375 0.00257426 1.06814)
(-0.000593232 0.00245226 1.05708)
(-0.000926321 0.00222545 1.03553)
(-0.0011856 0.00192018 1.00462)
(-0.00135279 0.0015738 0.965765)
(0.00190876 0.00220879 1.13711)
(0.00166984 0.00266514 1.1802)
(0.00130272 0.00306713 1.21428)
(0.000832448 0.0033649 1.23798)
(0.000286425 0.00352459 1.25013)
(-0.000286516 0.00352458 1.25013)
(-0.000832536 0.00336489 1.23798)
(-0.0013028 0.00306712 1.21428)
(-0.00166991 0.00266512 1.1802)
(-0.00190882 0.00220877 1.13711)
(0.00244919 0.00281933 1.29231)
(0.00213263 0.00335655 1.33812)
(0.0016577 0.00382679 1.37412)
(0.00105578 0.00417306 1.39908)
(0.000362665 0.00435796 1.41185)
(-0.000362773 0.00435796 1.41185)
(-0.00105589 0.00417305 1.39908)
(-0.0016578 0.00382678 1.37412)
(-0.00213272 0.00335653 1.33812)
(-0.00244927 0.00281931 1.29231)
(0.00291643 0.00333726 1.43108)
(0.00252245 0.00390989 1.47821)
(0.00195036 0.00440546 1.515)
(0.00123677 0.00476717 1.5404)
(0.00042388 0.00495916 1.55336)
(-0.000424004 0.00495916 1.55336)
(-0.00123689 0.00476716 1.5404)
(-0.00195047 0.00440545 1.515)
(-0.00252255 0.00390988 1.47821)
(-0.00291652 0.00333725 1.43108)
(0.00326506 0.00370635 1.55295)
(0.00279952 0.00426025 1.60033)
(0.00214886 0.00472746 1.63697)
(0.00135471 0.00506424 1.66207)
(0.000462895 0.00524146 1.6748)
(-0.000463032 0.00524146 1.6748)
(-0.00135484 0.00506424 1.66207)
(-0.00214898 0.00472746 1.63697)
(-0.00279963 0.00426024 1.60033)
(-0.00326516 0.00370634 1.55295)
(0.00346811 0.00393405 1.65713)
(0.00293447 0.00436857 1.70487)
(0.00222674 0.00473887 1.74041)
(0.00139271 0.00500085 1.76441)
(0.000473966 0.00513705 1.7765)
(-0.000474112 0.00513705 1.7765)
(-0.00139286 0.00500085 1.76441)
(-0.00222688 0.00473888 1.74041)
(-0.00293459 0.00436857 1.70487)
(-0.00346822 0.00393405 1.65713)
(-4.22191e-07 2.17093e-07 0.12287)
(-1.46816e-06 7.16013e-07 0.128956)
(-1.66494e-06 5.44416e-07 0.133863)
(-1.08297e-06 2.30605e-07 0.137309)
(-3.92221e-07 5.24997e-08 0.139085)
(3.87736e-07 5.21605e-08 0.139085)
(1.07863e-06 2.29603e-07 0.137309)
(1.66094e-06 5.42836e-07 0.133863)
(1.46447e-06 7.13909e-07 0.128956)
(4.19236e-07 2.14624e-07 0.12287)
(3.98162e-05 4.79064e-05 0.356349)
(3.27391e-05 6.08577e-05 0.373003)
(2.45211e-05 7.10952e-05 0.386417)
(1.56634e-05 7.8454e-05 0.395821)
(5.36519e-06 8.24216e-05 0.400665)
(-5.38018e-06 8.24207e-05 0.400665)
(-1.56778e-05 7.84512e-05 0.395821)
(-2.45345e-05 7.10908e-05 0.386417)
(-3.27514e-05 6.08518e-05 0.373003)
(-3.98262e-05 4.78994e-05 0.356349)
(0.000136349 0.000160065 0.574539)
(0.000118087 0.000200702 0.600162)
(9.17079e-05 0.000235652 0.62074)
(5.89429e-05 0.000261719 0.635145)
(2.0318e-05 0.000275844 0.642558)
(-2.03447e-05 0.000275842 0.642558)
(-5.89687e-05 0.000261715 0.635145)
(-9.1732e-05 0.000235646 0.62074)
(-0.000118109 0.000200693 0.600162)
(-0.000136367 0.000160055 0.574539)
(0.000288548 0.000335694 0.777298)
(0.000253464 0.000417033 0.810314)
(0.00019873 0.000488777 0.83672)
(0.000127912 0.0005427 0.855171)
(4.41536e-05 0.000571935 0.864656)
(-4.41929e-05 0.000571933 0.864656)
(-0.00012795 0.000542695 0.855171)
(-0.000198765 0.000488768 0.83672)
(-0.000253496 0.000417022 0.810313)
(-0.000288575 0.000335681 0.777298)
(0.000483781 0.000559572 0.96448)
(0.00042652 0.000688292 1.00333)
(0.000335175 0.000802755 1.03424)
(0.000215585 0.000888785 1.0558)
(7.44078e-05 0.000935347 1.06686)
(-7.44601e-05 0.000935345 1.06686)
(-0.000215636 0.000888779 1.0558)
(-0.000335223 0.000802746 1.03424)
(-0.000426564 0.00068828 1.00333)
(-0.000483818 0.000559558 0.96448)
(0.000703032 0.000809124 1.13592)
(0.000619068 0.000983806 1.17906)
(0.00048587 0.00113908 1.2132)
(0.000311845 0.00125533 1.23694)
(0.000107524 0.00131806 1.24911)
(-0.000107589 0.00131806 1.24911)
(-0.000311908 0.00125533 1.23694)
(-0.00048593 0.00113907 1.2132)
(-0.000619122 0.000983794 1.17906)
(-0.000703079 0.00080911 1.13592)
(0.000923378 0.00105737 1.29142)
(0.000809631 0.0012681 1.33736)
(0.000633181 0.00145426 1.37347)
(0.000405046 0.00159274 1.39852)
(0.000139427 0.00166711 1.41134)
(-0.000139505 0.00166711 1.41134)
(-0.000405122 0.00159274 1.39852)
(-0.000633253 0.00145425 1.37347)
(-0.000809696 0.00126809 1.33736)
(-0.000923435 0.00105736 1.29142)
(0.0011209 0.00127603 1.43069)
(0.000976477 0.00150548 1.47802)
(0.000759596 0.00170591 1.51499)
(0.000483747 0.00185355 1.54054)
(0.000166133 0.00193233 1.55357)
(-0.000166223 0.00193233 1.55357)
(-0.000483834 0.00185355 1.54054)
(-0.000759678 0.0017059 1.51499)
(-0.000976552 0.00150547 1.47802)
(-0.00112097 0.00127602 1.43069)
(0.00127574 0.00144076 1.55319)
(0.00110162 0.00166722 1.60086)
(0.000850446 0.00185981 1.63776)
(0.000538293 0.00199966 1.66305)
(0.000184277 0.00207357 1.67589)
(-0.000184377 0.00207357 1.67589)
(-0.00053839 0.00199966 1.66305)
(-0.000850538 0.00185981 1.63776)
(-0.0011017 0.00166722 1.60086)
(-0.00127581 0.00144075 1.55319)
(0.00137461 0.00155325 1.65809)
(0.00117019 0.0017357 1.70622)
(0.000892578 0.00189073 1.74208)
(0.000560228 0.00200093 1.76632)
(0.000190968 0.00205839 1.77852)
(-0.000191074 0.00205839 1.77852)
(-0.000560332 0.00200093 1.76632)
(-0.000892677 0.00189073 1.74208)
(-0.00117029 0.0017357 1.70622)
(-0.00137469 0.00155325 1.65809)
(2.39566e-08 7.93182e-07 0.122841)
(-8.39254e-07 1.18171e-06 0.128924)
(-1.0484e-06 1.01247e-06 0.133828)
(-7.61062e-07 7.21892e-07 0.137271)
(-2.83131e-07 5.36407e-07 0.139046)
(2.80081e-07 5.36179e-07 0.139046)
(7.58111e-07 7.21206e-07 0.137271)
(1.04568e-06 1.01138e-06 0.133828)
(8.36801e-07 1.18028e-06 0.128924)
(-2.59541e-08 7.91555e-07 0.122841)
(1.13902e-05 1.49551e-05 0.356214)
(8.06832e-06 1.92528e-05 0.372856)
(5.38934e-06 2.19913e-05 0.386258)
(3.23286e-06 2.37283e-05 0.395654)
(1.06788e-06 2.46095e-05 0.400494)
(-1.07815e-06 2.46089e-05 0.400494)
(-3.24278e-06 2.37263e-05 0.395654)
(-5.39854e-06 2.19883e-05 0.386258)
(-8.07661e-06 1.92487e-05 0.372856)
(-1.13971e-05 1.49505e-05 0.356213)