/*--------------------------------*- C++ -*----------------------------------*\
| =========                 |                                                 |
| \\      /  F ield         | OpenFOAM: The Open Source CFD Toolbox           |
|  \\    /   O peration     | Version:  2106                                  |
|   \\  /    A nd           | Website:  www.openfoam.com                      |
|    \\/     M anipulation  |                                                 |
\*---------------------------------------------------------------------------*/
FoamFile
{
    version     2.0;
    format      ascii;
    arch        "LSB;label=32;scalar=64";
    class       surfaceScalarField;
    location    "0.46";
    object      phi;
}
// * * * * * * * * * * * * * * * * * * * * * * * * * * * * * * * * * * * * * //

dimensions      [0 3 -1 0 0 0 0];

oriented        oriented;

internalField   nonuniform List<scalar> 
29100
(
0.00118088
0.150395
0.0809238
-2.65582e-10
0.00145315
0.155271
0.0889303
0.00124701
0.15869
0.0956187
0.000710177
0.160967
0.100406
-2.94992e-09
0.16211
0.102899
-0.000710183
0.16211
0.102899
-0.00124702
0.160967
0.100406
-0.00145316
0.15869
0.0956187
-0.00118089
0.155271
0.0889303
0.150395
0.0809238
-4.84496e-09
0.00236421
0.208226
0.155472
-5.84334e-10
0.00328399
0.212807
0.168998
0.00292902
0.215876
0.180057
0.0016944
0.217791
0.187879
-8.32675e-09
0.21873
0.19192
-0.00169441
0.21873
0.19192
-0.00292904
0.217791
0.187879
-0.003284
0.215876
0.180057
-0.00236422
0.212807
0.168998
0.208226
0.155472
-1.27165e-08
0.00301573
0.219338
0.184707
-8.3756e-10
0.00426546
0.222258
0.199733
0.00382884
0.224159
0.211828
0.0022176
0.225196
0.220306
-1.33749e-08
0.225677
0.224664
-0.00221762
0.225677
0.224664
-0.00382887
0.225196
0.220306
-0.00426549
0.224159
0.211828
-0.00301575
0.222258
0.199733
0.219338
0.184707
-1.95373e-08
0.00344392
0.206085
0.191812
-1.04573e-09
0.00480471
0.207334
0.206976
0.00430381
0.208092
0.219029
0.00248823
0.208326
0.227417
-1.83925e-08
0.208394
0.23171
-0.00248827
0.208394
0.23171
-0.00430385
0.208326
0.227417
-0.00480474
0.208092
0.219029
-0.00344395
0.207334
0.206976
0.206085
0.191812
-2.55615e-08
0.0036724
0.18114
0.186445
-1.25062e-09
0.00505411
0.181102
0.201243
0.00451489
0.180992
0.212887
0.00260683
0.180655
0.220942
-2.35933e-08
0.180435
0.225051
-0.00260687
0.180435
0.225051
-0.00451493
0.180655
0.220942
-0.00505415
0.180992
0.212887
-0.00367243
0.181102
0.201243
0.18114
0.186445
-3.10567e-08
0.00375625
0.151786
0.173937
-1.4793e-09
0.00511842
0.150895
0.188217
0.00456278
0.150219
0.199362
0.00263296
0.149547
0.207032
-2.91536e-08
0.149165
0.210934
-0.00263301
0.149165
0.210934
-0.00456283
0.149547
0.207032
-0.00511847
0.150219
0.199362
-0.00375629
0.150895
0.188217
0.151786
0.173937
-3.61812e-08
0.00376298
0.122107
0.157423
-1.75825e-09
0.00509149
0.120736
0.171183
0.00453181
0.119746
0.181852
0.00261489
0.11893
0.18916
-3.51629e-08
0.11849
0.192869
-0.00261496
0.11849
0.192869
-0.00453187
0.11893
0.18916
-0.00509155
0.119746
0.181852
-0.00376303
0.120736
0.171183
0.122107
0.157423
-4.10311e-08
0.0037272
0.094321
0.138734
-2.10751e-09
0.00503559
0.0927284
0.15203
0.00448183
0.0916227
0.162282
0.00258721
0.0908098
0.169272
-4.15461e-08
0.0903893
0.172812
-0.00258729
0.0903893
0.172812
-0.0044819
0.0908098
0.169272
-0.00503566
0.0916227
0.162282
-0.00372726
0.0927284
0.15203
0.094321
0.138734
-4.5515e-08
0.00369393
0.0695424
0.118928
-2.67751e-09
0.00501525
0.0678943
0.131824
0.00446514
0.0668454
0.141719
0.00257676
0.0661512
0.148436
-4.79078e-08
0.0658074
0.15183
-0.00257686
0.0658074
0.15183
-0.00446522
0.0661512
0.148436
-0.00501533
0.0668454
0.141719
-0.00369399
0.0678943
0.131824
0.0695424
0.118928
-4.95473e-08
0.0039126
0.0986079
-3.46891e-09
0.0480335
0.00520289
0.111164
0.0467307
0.00457576
0.120748
0.0459022
0.00262067
0.127226
0.0454006
-5.35132e-08
0.130491
0.0451546
-0.00262077
0.130491
0.0451546
-0.00457586
0.127226
0.0454006
-0.00520297
0.120748
0.0459022
-0.00391266
0.111164
0.0467307
0.0986079
-5.29733e-08
0.0480335
-0.000240359
0.036509
0.0446552
-3.95458e-10
-0.000242408
0.0396814
0.049251
-0.000170409
0.0423623
0.0531844
-8.48707e-05
0.0442793
0.0560411
-4.87116e-09
0.045271
0.0575433
8.48611e-05
0.045271
0.0575433
0.000170399
0.0442793
0.0560411
0.000242399
0.0423623
0.0531844
0.00024035
0.0396814
0.049251
0.036509
0.0446552
-7.92934e-09
6.44675e-05
0.080629
0.111288
-8.61482e-10
0.000252576
0.0864124
0.122079
0.000301865
0.0912221
0.131148
0.000202212
0.0945919
0.137666
-1.48939e-08
0.0963229
0.14107
-0.000202241
0.0963229
0.14107
-0.000301894
0.0945919
0.137666
-0.000252602
0.0912221
0.131148
-6.44918e-05
0.0864124
0.122079
0.080629
0.111288
-2.23098e-08
0.00061346
0.112069
0.152653
-1.33043e-09
0.00103106
0.118766
0.166963
0.00100879
0.124262
0.178811
0.000616506
0.128038
0.187253
-2.48549e-08
0.129962
0.191641
-0.000616555
0.129962
0.191641
-0.00100883
0.128038
0.187253
-0.0010311
0.124262
0.178811
-0.0006135
0.118766
0.166963
0.112069
0.152653
-3.54165e-08
0.00123142
0.128503
0.174147
-1.77732e-09
0.00187325
0.134876
0.190223
0.00176252
0.14004
0.203361
0.00105261
0.143513
0.212651
-3.49275e-08
0.145267
0.217458
-0.00105268
0.145267
0.217458
-0.00176259
0.143513
0.212651
-0.00187331
0.14004
0.203361
-0.00123148
0.134876
0.190223
0.128503
0.174147
-4.71827e-08
0.00183525
0.131677
0.181436
-2.25235e-09
0.00267286
0.137038
0.198243
0.00247001
0.141314
0.211815
0.001459
0.144121
0.221345
-4.52461e-08
0.145521
0.226256
-0.00145909
0.145521
0.226256
-0.0024701
0.144121
0.221345
-0.00267294
0.141314
0.211815
-0.00183531
0.137038
0.198243
0.131677
0.181436
-5.77548e-08
0.00238098
0.124629
0.178604
-2.79863e-09
0.00338336
0.12871
0.195543
0.00309416
0.131888
0.209077
0.00181631
0.133913
0.218517
-5.5918e-08
0.134908
0.223364
-0.00181642
0.134908
0.223364
-0.00309426
0.133913
0.218517
-0.00338345
0.131888
0.209077
-0.00238106
0.12871
0.195543
0.124629
0.178604
-6.7196e-08
0.00284557
0.110589
0.168617
-3.48463e-09
0.00398846
0.113387
0.185363
0.00362657
0.115485
0.198617
0.00212163
0.116774
0.207804
-6.68813e-08
0.117394
0.212504
-0.00212176
0.117394
0.212504
-0.00362669
0.116774
0.207804
-0.00398857
0.115485
0.198617
-0.00284566
0.113387
0.185363
0.110589
0.168617
-7.55241e-08
0.0032233
0.0924744
0.153626
-4.23909e-09
0.00449797
0.0941207
0.170022
0.00408112
0.0952942
0.18289
0.00238385
0.0959859
0.191757
-7.77233e-08
0.0963127
0.196278
-0.002384
0.0963127
0.196278
-0.00408126
0.0959859
0.191757
-0.00449809
0.0952942
0.182889
-0.0032234
0.0941207
0.170022
0.0924744
0.153626
-8.2447e-08
0.00355
0.0726809
0.135172
-5.39493e-09
0.00496127
0.0733707
0.151163
0.00449579
0.0738637
0.163615
0.00262192
0.07415
0.172146
-8.73973e-08
0.074285
0.17648
-0.00262209
0.074285
0.17648
-0.00449594
0.07415
0.172146
-0.0049614
0.0738637
0.163615
-0.0035501
0.0733707
0.151163
0.0726809
0.135172
-8.75155e-08
0.00397344
0.114353
-7.06844e-09
0.0529621
0.00550327
0.12995
0.0530549
0.00494779
0.141988
0.0531789
0.00286944
0.150187
0.0532679
-9.45813e-08
0.154337
0.053309
-0.00286962
0.154337
0.053309
-0.00494795
0.150187
0.0532679
-0.00550341
0.141988
0.0531789
-0.00397355
0.12995
0.0530549
0.114353
-9.02854e-08
0.0529621
3.93009e-05
0.0099704
0.0346455
-4.27871e-10
3.52556e-05
0.0110016
0.0382534
2.9664e-05
0.0118769
0.0413132
1.64258e-05
0.0125267
0.0435277
-5.11201e-09
0.012869
0.0446907
-1.64359e-05
0.012869
0.0446907
-2.96739e-05
0.0125267
0.0435277
-3.52651e-05
0.0118769
0.0413132
-3.93101e-05
0.0110016
0.0382534
0.0099704
0.0346455
-8.66016e-09
0.000280881
0.0302219
0.0907554
-9.55892e-10
0.000381329
0.0329231
0.100057
0.000340711
0.0351836
0.107882
0.000198708
0.0368138
0.11352
-1.61634e-08
0.0376655
0.116473
-0.00019874
0.0376655
0.116473
-0.000340742
0.0368138
0.11352
-0.000381358
0.0351836
0.107882
-0.000280908
0.0329231
0.100057
0.0302219
0.0907554
-2.48344e-08
0.000599409
0.0510528
0.131223
-1.51592e-09
0.000850316
0.0550388
0.144596
0.0007702
0.0583303
0.155744
0.000451379
0.0606513
0.163734
-2.75131e-08
0.0618535
0.167904
-0.000451433
0.0618535
0.167904
-0.000770252
0.0606513
0.163734
-0.000850364
0.0583304
0.155744
-0.000599453
0.0550388
0.144596
0.0510528
0.131223
-3.97779e-08
0.000965146
0.0667812
0.157453
-2.09996e-09
0.00138479
0.0713357
0.173507
0.00126459
0.0750508
0.186761
0.00074258
0.0776191
0.196205
-3.91213e-08
0.0789373
0.201117
-0.000742657
0.0789373
0.201117
-0.00126466
0.0776191
0.196205
-0.00138486
0.0750508
0.186761
-0.000965206
0.0713357
0.173507
0.0667812
0.157453
-5.32426e-08
0.00135299
0.0754251
0.171439
-2.77346e-09
0.00193755
0.0798904
0.189104
0.00177379
0.0834842
0.203546
0.00104186
0.0859209
0.213775
-5.0969e-08
0.087159
0.219076
-0.00104196
0.087159
0.219076
-0.00177389
0.0859209
0.213775
-0.00193763
0.0834842
0.203546
-0.00135307
0.0798904
0.189104
0.0754251
0.171439
-6.52015e-08
0.0017426
0.0770122
0.175275
-3.60634e-09
0.00247858
0.080924
0.193774
0.00226808
0.0840179
0.208754
0.00133145
0.0860731
0.219302
-6.30117e-08
0.0871058
0.224748
-0.00133158
0.0871058
0.224748
-0.0022682
0.0860732
0.219302
-0.00247868
0.084018
0.208754
-0.00174269
0.080924
0.193774
0.0770122
0.175275
-7.55874e-08
0.00211077
0.0726224
0.170897
-4.68921e-09
0.00298382
0.0757214
0.189693
0.00272769
0.0781154
0.204775
0.00160034
0.0796721
0.215333
-7.50412e-08
0.0804453
0.220765
-0.00160049
0.0804453
0.220765
-0.00272783
0.0796721
0.215333
-0.00298394
0.0781154
0.204775
-0.00211087
0.0757214
0.189693
0.0726224
0.170897
-8.43091e-08
0.00244153
0.0638104
0.159996
-5.92963e-09
0.00344341
0.0660029
0.178738
0.00314622
0.0676536
0.193648
0.00184503
0.0687073
0.204023
-8.64906e-08
0.0692259
0.209343
-0.00184519
0.0692259
0.209342
-0.00314637
0.0687073
0.204023
-0.00344354
0.0676536
0.193648
-0.00244164
0.0660029
0.178738
0.0638105
0.159996
-9.09473e-08
0.00274743
0.0522364
0.143998
-7.7269e-09
0.00387342
0.0535594
0.16248
0.0035336
0.0545495
0.177058
0.00206931
0.0551792
0.187138
-9.60856e-08
0.0554886
0.192286
-0.00206949
0.0554887
0.192286
-0.00353377
0.0551792
0.187138
-0.00387356
0.0545496
0.177058
-0.00274755
0.0535594
0.16248
0.0522364
0.143998
-9.49322e-08
0.00308741
0.124082
-1.00371e-08
0.0394203
0.00431831
0.142223
0.0400555
0.00391695
0.156374
0.0405645
0.00228445
0.166092
0.0409063
-1.02231e-07
0.171035
0.041075
-0.00228464
0.171035
0.041075
-0.00391712
0.166092
0.0409063
-0.00431846
0.156374
0.0405645
-0.00308753
0.142223
0.0400555
0.124082
-9.58309e-08
0.0394203
-3.16161e-05
0.00405784
0.0306192
-4.25672e-10
-4.51595e-05
0.00446837
0.0337986
-3.64451e-05
0.00481681
0.0364876
-2.0104e-05
0.00507588
0.0384355
-4.57514e-09
0.00521159
0.039459
2.00949e-05
0.00521159
0.039459
3.64362e-05
0.00507588
0.0384355
4.51506e-05
0.00481681
0.0364876
3.16075e-05
0.00446837
0.0337986
0.00405784
0.0306192
-8.0756e-09
9.63934e-06
0.0125915
0.0822121
-9.58322e-10
1.66815e-05
0.0137967
0.0907216
2.10507e-05
0.0148182
0.0978764
1.50793e-05
0.0155627
0.10304
-1.47303e-08
0.015953
0.105746
-1.51085e-05
0.015953
0.105746
-2.1079e-05
0.0155627
0.10304
-1.67076e-05
0.0148182
0.0978764
-9.66292e-06
0.0137967
0.0907215
0.0125915
0.0822121
-2.32118e-08
0.000122185
0.0224003
0.121292
-1.59931e-09
0.000185214
0.0243997
0.13393
0.000177829
0.0260829
0.144487
0.00010833
0.0272909
0.152076
-2.53681e-08
0.0279217
0.156044
-0.00010838
0.0279217
0.156044
-0.000177877
0.0272909
0.152076
-0.000185259
0.0260829
0.144487
-0.000122226
0.0243997
0.13393
0.0224003
0.121292
-3.76774e-08
0.00029146
0.0310386
0.148523
-2.28272e-09
0.000434441
0.0335819
0.164182
0.000409463
0.0357021
0.177167
0.000245469
0.0372013
0.186459
-3.6348e-08
0.0379792
0.191305
-0.000245541
0.0379792
0.191305
-0.000409531
0.0372014
0.186459
-0.000434504
0.0357021
0.177167
-0.000291517
0.0335819
0.164182
0.0310386
0.148523
-5.05949e-08
0.000501795
0.0369964
0.164979
-3.08058e-09
0.000737341
0.0397438
0.182706
0.000689553
0.0420047
0.197291
0.000410702
0.0435789
0.207676
-4.75525e-08
0.0443894
0.213077
-0.000410795
0.0443894
0.213077
-0.000689641
0.0435789
0.207676
-0.000737421
0.0420047
0.197291
-0.000501865
0.0397438
0.182706
0.0369964
0.164979
-6.19156e-08
0.000737183
0.0396319
0.171902
-4.06519e-09
0.00106993
0.0422646
0.19092
0.000995188
0.044394
0.206439
0.000590458
0.0458526
0.217433
-5.88354e-08
0.046597
0.223131
-0.000590573
0.046597
0.223131
-0.000995296
0.0458526
0.217433
-0.00107002
0.044394
0.206439
-0.000737265
0.0422646
0.19092
0.0396319
0.171902
-7.15396e-08
0.00098042
0.0389702
0.170578
-5.32294e-09
0.00141061
0.0412461
0.190281
0.00130721
0.0430467
0.206226
0.000773648
0.044259
0.21746
-6.99052e-08
0.0448721
0.223264
-0.000773784
0.0448721
0.223264
-0.00130734
0.044259
0.21746
-0.00141072
0.0430467
0.206226
-0.000980513
0.0412461
0.190281
0.0389702
0.170578
-7.93265e-08
0.00121862
0.0354923
0.162255
-6.75356e-09
0.00174619
0.037263
0.182194
0.00161407
0.0386309
0.198196
0.000953385
0.0395376
0.209405
-8.01561e-08
0.0399924
0.215176
-0.000953541
0.0399924
0.215176
-0.00161422
0.0395376
0.209405
-0.00174631
0.038631
0.198196
-0.00121872
0.037263
0.182194
0.0354923
0.162255
-8.48393e-08
0.001456
0.0299398
0.148095
-8.71359e-09
0.00207926
0.0311557
0.167964
0.00191456
0.0320804
0.183774
0.00112769
0.0326877
0.194775
-8.83444e-08
0.0329908
0.200416
-0.00112786
0.0329908
0.200416
-0.00191472
0.0326877
0.194775
-0.00207939
0.0320804
0.183774
-0.0014561
0.0311558
0.167964
0.0299398
0.148095
-8.75223e-08
0.00170793
0.129152
-1.11283e-08
0.0231619
0.00242096
0.148804
0.0238622
0.00221632
0.164246
0.0244133
0.00129983
0.174912
0.0247842
-9.29831e-08
0.180356
0.0249695
-0.00130001
0.180356
0.0249695
-0.00221648
0.174912
0.0247842
-0.0024211
0.164246
0.0244133
-0.00170803
0.148804
0.0238622
0.129152
-8.70192e-08
0.0231619
2.12961e-06
0.00131495
0.0293022
-4.01713e-10
-2.53695e-07
0.00146025
0.0323407
1.06351e-07
0.00158671
0.0349006
1.18452e-07
0.00168327
0.0367522
-3.77537e-09
0.00173477
0.0377243
-1.25923e-07
0.00173477
0.0377243
-1.13792e-07
0.00168327
0.0367522
2.46374e-07
0.00158671
0.0349006
-2.13659e-06
0.00146025
0.0323407
0.00131495
0.0293021
-6.94861e-09
3.04704e-05
0.00472006
0.0787765
-9.83475e-10
3.92603e-05
0.00520966
0.0869633
3.60813e-05
0.00563052
0.0938357
2.13748e-05
0.0059432
0.0987945
-1.22748e-08
0.00610888
0.101394
-2.1399e-05
0.00610889
0.101394
-3.61051e-05
0.0059432
0.0987944
-3.9283e-05
0.00563053
0.0938357
-3.04918e-05
0.00520967
0.0869633
0.00472006
0.0787765
-2.02251e-08
8.4836e-05
0.0091053
0.116822
-1.62431e-09
0.000120058
0.00999351
0.129111
0.000110706
0.0107501
0.139377
6.56698e-05
0.0113021
0.146762
-2.12531e-08
0.011593
0.150625
-6.57117e-05
0.011593
0.150625
-0.000110747
0.0113021
0.146762
-0.000120096
0.0107501
0.139377
-8.4871e-05
0.00999352
0.129111
0.00910531
0.116822
-3.25732e-08
0.000164977
0.0133746
0.144089
-2.31252e-09
0.000239326
0.0145913
0.15951
0.000222138
0.0156178
0.172317
0.00013187
0.0163554
0.181496
-3.05627e-08
0.0167416
0.186288
-0.00013193
0.0167416
0.186288
-0.000222195
0.0163554
0.181496
-0.000239379
0.0156178
0.172316
-0.000165024
0.0145913
0.15951
0.0133746
0.144089
-4.36778e-08
0.000267938
0.016706
0.16138
-3.11522e-09
0.000390269
0.0181081
0.179067
0.000363045
0.019277
0.193659
0.000215488
0.0201048
0.204074
-4.00541e-08
0.0205352
0.209499
-0.000215566
0.0205352
0.209499
-0.000363119
0.0201048
0.204074
-0.000390337
0.019277
0.193659
-0.000267998
0.0181081
0.179067
0.016706
0.16138
-5.34056e-08
0.000388383
0.0186103
0.169609
-4.09658e-09
0.000563965
0.0200333
0.188819
0.000524484
0.0212019
0.204554
0.000311084
0.0220171
0.215734
-4.95497e-08
0.0224375
0.22154
-0.000311181
0.0224375
0.22154
-0.000524575
0.0220171
0.215734
-0.000564046
0.0212019
0.204554
-0.000388453
0.0200333
0.188819
0.0186104
0.169609
-6.15972e-08
0.000518917
0.0189186
0.169751
-5.32377e-09
0.0007503
0.0202151
0.189868
0.000696999
0.0212599
0.206221
0.000413013
0.0219775
0.217783
-5.87557e-08
0.0223444
0.22377
-0.000413127
0.0223444
0.22377
-0.000697106
0.0219775
0.217783
-0.000750394
0.0212599
0.206221
-0.000518996
0.0202151
0.189868
0.0189186
0.169751
-6.81058e-08
0.000652896
0.0177278
0.162793
-6.70693e-09
0.000941317
0.01879
0.183331
0.00087299
0.0196286
0.199896
0.000516587
0.0201959
0.211543
-6.713e-08
0.0204834
0.217553
-0.000516718
0.0204834
0.217553
-0.00087311
0.0201959
0.211543
-0.00094142
0.0196286
0.199896
-0.000652981
0.01879
0.18333
0.0177279
0.162793
-7.25582e-08
0.000790336
0.0153265
0.149706
-8.51615e-09
0.00113425
0.0161003
0.17031
0.00104782
0.0166995
0.186789
0.000618421
0.0170997
0.1983
-7.36302e-08
0.0173012
0.204216
-0.000618564
0.0173012
0.204216
-0.00104795
0.0170997
0.1983
-0.00113437
0.0166995
0.186789
-0.000790425
0.0161003
0.17031
0.0153265
0.149706
-7.44738e-08
0.000926616
0.131425
-1.06339e-08
0.0121266
0.00132197
0.151906
0.0126026
0.00121653
0.168075
0.0129764
0.000715836
0.179282
0.0132299
-7.7068e-08
0.185016
0.0133575
-0.000715985
0.185016
0.0133575
-0.00121666
0.179282
0.0132299
-0.00132208
0.168075
0.0129764
-0.000926704
0.151906
0.0126026
0.131425
-7.35742e-08
0.0121266
-5.54314e-06
0.000567862
0.0287398
-3.3845e-10
-8.26927e-06
0.000624658
0.0317188
-6.58396e-06
0.000672765
0.0342261
-3.63577e-06
0.000709313
0.0360399
-3.02867e-09
0.000728532
0.0369922
3.63014e-06
0.000728531
0.0369922
6.57799e-06
0.000709314
0.0360399
8.26353e-06
0.000672766
0.0342261
5.53735e-06
0.00062466
0.0317188
0.000567863
0.0287398
-5.61832e-09
-1.15387e-06
0.00197758
0.077368
-8.65068e-10
-2.38705e-06
0.00217846
0.0854108
-1.10068e-06
0.0023497
0.0921575
-1.3462e-07
0.00247705
0.0970258
-9.92345e-09
0.00254452
0.0995775
1.13157e-07
0.00254452
0.0995775
1.08171e-06
0.00247705
0.0970257
2.36805e-06
0.0023497
0.0921575
1.13682e-06
0.00217847
0.0854107
0.00197758
0.077368
-1.62917e-08
1.67743e-05
0.00384516
0.114938
-1.45692e-09
2.47473e-05
0.00422828
0.127053
2.42663e-05
0.00455492
0.137172
1.50019e-05
0.00479461
0.144453
-1.68035e-08
0.00492129
0.148264
-1.50346e-05
0.00492129
0.148264
-2.42985e-05
0.00479462
0.144453
-2.47775e-05
0.00455493
0.137172
-1.68021e-05
0.00422829
0.127053
0.00384516
0.114938
-2.62615e-08
4.88543e-05
0.00576032
0.142125
-2.09345e-09
7.26414e-05
0.00631137
0.157403
6.91145e-05
0.00677865
0.170096
4.17142e-05
0.00711734
0.1792
-2.40986e-08
0.0072955
0.183955
-4.17615e-05
0.0072955
0.183955
-6.916e-05
0.00711734
0.1792
-7.26837e-05
0.00677866
0.170096
-4.88925e-05
0.00631138
0.157403
0.00576033
0.142125
-3.52671e-08
9.38748e-05
0.00736079
0.159686
-2.8219e-09
0.000138947
0.00802563
0.177308
0.000131151
0.00858406
0.191861
7.86006e-05
0.00898371
0.202261
-3.15699e-08
0.00919266
0.20768
-7.86626e-05
0.00919266
0.20768
-0.00013121
0.00898371
0.202261
-0.000139001
0.00858408
0.191861
-9.39224e-05
0.00802565
0.177308
0.0073608
0.159686
-4.31636e-08
0.00014973
0.00838878
0.168432
-3.6913e-09
0.000220111
0.00909322
0.187681
0.000206855
0.00967697
0.203474
0.00012353
0.0100891
0.214712
-3.90086e-08
0.010303
0.220553
-0.000123607
0.010303
0.220553
-0.000206927
0.0100891
0.214712
-0.000220176
0.00967698
0.203474
-0.000149786
0.00909324
0.187681
0.00838879
0.168431
-4.98099e-08
0.000213257
0.00871286
0.169213
-4.74959e-09
0.000311646
0.00938145
0.189481
0.000291963
0.00992596
0.205992
0.000173935
0.0103048
0.217686
-4.61623e-08
0.0104999
0.223747
-0.000174025
0.0105
0.223747
-0.000292047
0.0103048
0.217686
-0.00031172
0.00992597
0.205992
-0.00021332
0.00938147
0.189481
0.00871288
0.169213
-5.50831e-08
0.000281504
0.00832511
0.162899
-5.92334e-09
0.000409725
0.00889555
0.183688
0.000382659
0.00935122
0.200498
0.000227416
0.00966359
0.21234
-5.26071e-08
0.00982308
0.218458
-0.000227518
0.00982308
0.218458
-0.000382753
0.0096636
0.21234
-0.000409807
0.00935124
0.200498
-0.000281572
0.00889556
0.183688
0.00832513
0.162899
-5.86984e-08
0.000354665
0.00732057
0.150356
-7.38538e-09
0.000512765
0.00775507
0.171292
0.000476276
0.00809506
0.188082
0.000282046
0.00832478
0.199833
-5.7569e-08
0.00844113
0.20588
-0.000282158
0.00844114
0.20588
-0.000476378
0.00832479
0.199833
-0.000512852
0.00809508
0.188082
-0.000354735
0.00775508
0.171292
0.00732058
0.150356
-6.02947e-08
0.000428421
0.132443
-9.03103e-09
0.00587476
0.000615653
0.153318
0.00615571
0.000569589
0.169838
0.00637748
0.000336247
0.181312
0.00652877
-6.01925e-08
0.187188
0.00660529
-0.000336364
0.187188
0.00660529
-0.000569695
0.181312
0.00652878
-0.000615743
0.169838
0.00637748
-0.000428491
0.153318
0.00615571
0.132443
-5.96996e-08
0.00587476
-8.11339e-07
0.000180191
0.0285605
-2.61446e-10
-1.59627e-06
0.000199634
0.0315199
-1.17572e-06
0.000216595
0.0340091
-6.33561e-07
0.000229928
0.0358095
-2.23103e-09
0.000237045
0.0367545
6.29143e-07
0.000237045
0.0367545
1.17131e-06
0.000229928
0.0358095
1.59184e-06
0.000216596
0.0340091
8.06927e-07
0.000199635
0.0315199
0.000180191
0.0285604
-4.19779e-09
1.69745e-06
0.000706443
0.07684
-6.78511e-10
1.72539e-06
0.000782377
0.084828
1.86574e-06
0.000848242
0.0915257
1.22294e-06
0.000898115
0.0963582
-7.27048e-09
0.000924748
0.098891
-1.23728e-06
0.000924749
0.098891
-1.87985e-06
0.000898117
0.0963582
-1.73876e-06
0.000848244
0.0915257
-1.70994e-06
0.00078238
0.084828
0.000706445
0.07684
-1.22389e-08
9.39036e-06
0.00145504
0.11418
-1.17057e-09
1.3095e-05
0.00160823
0.126223
1.2401e-05
0.00174041
0.136281
7.50175e-06
0.00183871
0.143518
-1.26183e-08
0.00189103
0.147305
-7.52666e-06
0.00189103
0.147305
-1.24251e-05
0.00183872
0.143518
-1.31179e-05
0.00174042
0.136281
-9.41148e-06
0.00160824
0.126223
0.00145505
0.11418
-1.99174e-08
2.29078e-05
0.00226454
0.141293
-1.70471e-09
3.32801e-05
0.00249457
0.156506
3.13042e-05
0.0026917
0.169147
1.87645e-05
0.00283632
0.178215
-1.81607e-08
0.0029129
0.182952
-1.88003e-05
0.0029129
0.182952
-3.13386e-05
0.00283632
0.178215
-3.33122e-05
0.00269171
0.169147
-2.29368e-05
0.00249458
0.156506
0.00226455
0.141293
-2.69118e-08
4.23195e-05
0.00298058
0.158927
-2.30655e-09
6.20516e-05
0.00326853
0.176514
5.83065e-05
0.00351294
0.191044
3.48514e-05
0.00368994
0.20143
-2.3774e-08
0.00378309
0.206845
-3.48981e-05
0.0037831
0.206845
-5.8351e-05
0.00368994
0.20143
-6.20924e-05
0.00351295
0.191044
-4.23557e-05
0.00326854
0.176514
0.00298059
0.158927
-3.30843e-08
6.7085e-05
0.00348131
0.167864
-3.00356e-09
9.83758e-05
0.00379653
0.187122
9.23431e-05
0.00406068
0.202933
5.51069e-05
0.00424942
0.21419
-2.93264e-08
0.00434806
0.220043
-5.51644e-05
0.00434806
0.220043
-9.23974e-05
0.00424943
0.214189
-9.84248e-05
0.00406069
0.202932
-6.71275e-05
0.00379654
0.187122
0.00348132
0.167864
-3.8325e-08
9.60614e-05
0.00369263
0.168906
-3.82275e-09
0.000140536
0.00400083
0.189233
0.000131735
0.00425491
0.205807
7.85012e-05
0.00443388
0.217555
-3.46321e-08
0.00452666
0.223647
-7.85689e-05
0.00452667
0.223647
-0.000131798
0.00443389
0.217554
-0.000140592
0.00425492
0.205807
-9.61092e-05
0.00400085
0.189233
0.00369264
0.168906
-4.25435e-08
0.000128014
0.0035933
0.162871
-4.7146e-09
0.000186776
0.00386385
0.183766
0.000174661
0.00408272
0.200682
0.000103875
0.00423451
0.21261
-3.93925e-08
0.00431248
0.218776
-0.000103952
0.00431249
0.218776
-0.000174732
0.00423451
0.21261
-0.000186838
0.00408273
0.200682
-0.000128065
0.00386387
0.183766
0.00359331
0.162871
-4.55451e-08
0.000162704
0.003211
0.150575
-5.78082e-09
0.000235765
0.00342336
0.17166
0.00021933
0.00359109
0.18859
0.000130017
0.00370545
0.200452
-4.30926e-08
0.00376366
0.206559
-0.000130101
0.00376366
0.206559
-0.000219407
0.00370546
0.200452
-0.000235832
0.0035911
0.18859
-0.000162757
0.00342337
0.17166
0.00321101
0.150575
-4.70829e-08
0.000195974
0.132841
-6.92774e-09
0.0026167
0.000282979
0.153897
0.00275775
0.00026272
0.17058
0.00286937
0.000155429
0.182179
0.00294588
-4.51868e-08
0.188123
0.00298473
-0.000155517
0.188123
0.00298474
-0.0002628
0.182179
0.00294589
-0.000283047
0.17058
0.00286937
-0.000196029
0.153897
0.00275776
0.132841
-4.70671e-08
0.00261671
-1.35042e-06
7.20086e-05
0.0284898
-1.88903e-10
-1.94707e-06
7.90328e-05
0.0314415
-1.57306e-06
8.50582e-05
0.0339237
-8.71242e-07
8.97549e-05
0.035719
-1.62595e-09
9.22364e-05
0.0366614
8.68015e-07
9.22365e-05
0.0366614
1.56986e-06
8.97551e-05
0.035719
1.94391e-06
8.50587e-05
0.0339237
1.34727e-06
7.90335e-05
0.0314415
7.2009e-05
0.0284898
-2.9617e-09
-1.68127e-06
0.000271756
0.076642
-5.2328e-10
-2.53326e-06
0.000300162
0.0846077
-2.06348e-06
0.00032476
0.0912856
-1.11184e-06
0.00034343
0.0961036
-5.29333e-09
0.000353389
0.0986288
1.10135e-06
0.000353389
0.0986288
2.05325e-06
0.000343431
0.0961036
2.52336e-06
0.000324762
0.0912855
1.6717e-06
0.000300164
0.0846077
0.000271757
0.0766419
-8.75429e-09
5.76069e-07
0.00056071
0.11389
-8.80466e-10
6.69773e-07
0.000620351
0.125903
8.72837e-07
0.000671825
0.135933
6.47302e-07
0.00071031
0.143151
-9.18809e-09
0.000730841
0.146928
-6.65449e-07
0.000730841
0.146928
-8.90373e-07
0.000710312
0.143151
-6.85888e-07
0.000671827
0.135933
-5.89792e-07
0.000620354
0.125903
0.000560714
0.11389
-1.40979e-08
5.30585e-06
0.000884245
0.140964
-1.29416e-09
7.81511e-06
0.000976876
0.156147
7.57847e-06
0.0010565
0.168763
4.64379e-06
0.0011153
0.177813
-1.32155e-08
0.00114655
0.182541
-4.66984e-06
0.00114655
0.182541
-7.60347e-06
0.00111531
0.177813
-7.83849e-06
0.00105651
0.168763
-5.32706e-06
0.000976881
0.156147
0.000884251
0.140964
-1.951e-08
1.28203e-05
0.00118266
0.158616
-1.74345e-09
1.89766e-05
0.00130227
0.176183
1.80583e-05
0.00140424
0.190697
1.08907e-05
0.00147862
0.201074
-1.72771e-08
0.00151793
0.206484
-1.09247e-05
0.00151793
0.206484
-1.80907e-05
0.00147863
0.201074
-1.90064e-05
0.00140424
0.190697
-1.28468e-05
0.00130227
0.176182
0.00118267
0.158616
-2.42438e-08
2.28724e-05
0.00140398
0.16762
-2.24845e-09
3.3798e-05
0.0015387
0.186875
3.19763e-05
0.0016522
0.202686
1.91835e-05
0.00173392
0.213947
-2.12763e-08
0.00177682
0.219804
-1.92253e-05
0.00177682
0.219804
-3.20157e-05
0.00173393
0.213947
-3.38338e-05
0.00165221
0.202686
-2.29037e-05
0.00153871
0.186875
0.00140398
0.167619
-2.82756e-08
3.505e-05
0.00151233
0.168763
-2.82655e-09
5.16407e-05
0.00164762
0.189107
4.87015e-05
0.00175983
0.205702
2.91332e-05
0.00183949
0.217469
-2.50841e-08
0.00188097
0.223572
-2.91823e-05
0.00188097
0.223572
-4.87475e-05
0.0018395
0.217468
-5.16819e-05
0.00175984
0.205702
-3.50853e-05
0.00164763
0.189107
0.00151234
0.168762
-3.1594e-08
4.89027e-05
0.00149246
0.162842
-3.44477e-09
7.18203e-05
0.00161432
0.183777
6.74969e-05
0.00171356
0.200733
4.02627e-05
0.0017829
0.212694
-2.85069e-08
0.00181867
0.218878
-4.03184e-05
0.00181867
0.218878
-6.75487e-05
0.0017829
0.212694
-7.1866e-05
0.00171356
0.200733
-4.89411e-05
0.00161433
0.183777
0.00149247
0.162842
-3.40868e-08
6.44132e-05
0.00135008
0.150653
-4.147e-09
9.38135e-05
0.00144829
0.171797
8.76077e-05
0.00152635
0.188783
5.20532e-05
0.00157992
0.20069
-3.12306e-08
0.00160728
0.206823
-5.2114e-05
0.00160728
0.206823
-8.76639e-05
0.00157992
0.20069
-9.38626e-05
0.00152636
0.188783
-6.44536e-05
0.0014483
0.171796
0.00135008
0.150653
-3.55992e-08
7.9632e-05
0.133
-4.87013e-09
0.00111125
0.000115585
0.154131
0.00117832
0.000107727
0.170883
0.00123163
6.38784e-05
0.182534
0.00126832
-3.29331e-08
0.188507
0.00128701
-6.39425e-05
0.188507
0.00128701
-0.000107786
0.182534
0.00126832
-0.000115636
0.170883
0.00123163
-7.96733e-05
0.154131
0.00117833
0.133
-3.60939e-08
0.00111125
-3.76409e-07
1.76234e-05
0.0284726
-1.25719e-10
-5.83181e-07
1.95352e-05
0.0314222
-4.72174e-07
2.12986e-05
0.0339023
-2.63591e-07
2.27582e-05
0.0356961
-1.15458e-09
2.35467e-05
0.0366376
2.61299e-07
2.35468e-05
0.0366376
4.69928e-07
2.27584e-05
0.035696
5.80964e-07
2.12989e-05
0.0339023
3.7424e-07
1.95356e-05
0.0314222
1.76237e-05
0.0284725
-2.00351e-09
-5.23225e-07
8.08567e-05
0.0765793
-3.63299e-10
-8.88912e-07
9.00722e-05
0.0845376
-7.54769e-07
9.83164e-05
0.0912084
-4.19566e-07
0.000104749
0.0960213
-3.74911e-09
0.000108224
0.0985437
4.12142e-07
0.000108224
0.0985437
7.47578e-07
0.00010475
0.0960212
8.81949e-07
9.83175e-05
0.0912084
5.16565e-07
9.00737e-05
0.0845375
8.08576e-05
0.0765792
-6.00572e-09
2.27966e-07
0.000181314
0.113789
-6.17094e-10
1.30976e-07
0.000202139
0.125791
1.58711e-07
0.000220476
0.135811
1.23413e-07
0.000234443
0.143021
-6.49783e-09
0.000241965
0.146794
-1.36228e-07
0.000241965
0.146794
-1.71089e-07
0.000234444
0.143021
-1.42066e-07
0.000220478
0.135811
-2.37524e-07
0.000202141
0.125791
0.000181317
0.113789
-9.75037e-09
1.93204e-06
0.000300541
0.140843
-9.0982e-10
2.68879e-06
0.000334436
0.156014
2.55084e-06
0.000364016
0.168619
1.54598e-06
0.00038619
0.177663
-9.33774e-09
0.000398066
0.182387
-1.56439e-06
0.000398067
0.182387
-2.56847e-06
0.000386192
0.177663
-2.70529e-06
0.000364019
0.168619
-1.94691e-06
0.00033444
0.156014
0.000300545
0.140843
-1.36115e-08
4.76944e-06
0.000416366
0.158495
-1.22153e-09
6.91736e-06
0.000461705
0.176053
6.52395e-06
0.00050086
0.190561
3.91551e-06
0.000529803
0.200933
-1.21897e-08
0.000545206
0.206341
-3.9395e-06
0.000545207
0.206341
-6.54681e-06
0.000529805
0.200933
-6.93844e-06
0.000500864
0.19056
-4.78816e-06
0.00046171
0.176053
0.000416371
0.158495
-1.70556e-08
8.69391e-06
0.000507841
0.167519
-1.5615e-09
1.27466e-05
0.000560406
0.186772
1.20143e-05
0.000605213
0.202583
7.19221e-06
0.00063787
0.213844
-1.49886e-08
0.000655123
0.219701
-7.22165e-06
0.000655124
0.219701
-1.20422e-05
0.000637873
0.213844
-1.27719e-05
0.000605217
0.202583
-8.7161e-06
0.000560411
0.186772
0.000507847
0.167519
-2.0052e-08
1.35772e-05
0.000559101
0.168698
-1.93777e-09
1.99621e-05
0.000613205
0.189048
1.88031e-05
0.000658585
0.20565
1.12389e-05
0.000691164
0.217423
-1.76503e-08
0.00070823
0.22353
-1.12735e-05
0.000708231
0.22353
-1.88357e-05
0.000691167
0.217423
-1.99913e-05
0.00065859
0.20565
-1.36024e-05
0.00061321
0.189048
0.000559107
0.168698
-2.25918e-08
1.92517e-05
0.000561836
0.16282
-2.33129e-09
2.82819e-05
0.000611685
0.183769
2.65787e-05
0.000652691
0.20074
1.58525e-05
0.000681623
0.212714
-2.00573e-08
0.000696624
0.218906
-1.58917e-05
0.000696624
0.218906
-2.66153e-05
0.000681626
0.212714
-2.83145e-05
0.000652695
0.20074
-1.92794e-05
0.00061169
0.183769
0.000561842
0.16282
-2.4608e-08
2.56491e-05
0.000516166
0.150673
-2.75973e-09
3.73905e-05
0.000557263
0.171839
3.49412e-05