/*--------------------------------*- C++ -*----------------------------------*\
| =========                 |                                                 |
| \\      /  F ield         | OpenFOAM: The Open Source CFD Toolbox           |
|  \\    /   O peration     | Version:  2106                                  |
|   \\  /    A nd           | Website:  www.openfoam.com                      |
|    \\/     M anipulation  |                                                 |
\*---------------------------------------------------------------------------*/
FoamFile
{
    version     2.0;
    format      ascii;
    arch        "LSB;label=32;scalar=64";
    class       volVectorField;
    location    "0.46";
    object      U;
}
// * * * * * * * * * * * * * * * * * * * * * * * * * * * * * * * * * * * * * //

dimensions      [0 1 -1 0 0 0 0];

internalField   nonuniform List<vector> 
10000
(
(0.0625644 0.0737222 0.345098)
(0.0533599 0.0838427 0.359577)
(0.03985 0.0929942 0.370941)
(0.0247214 0.0993768 0.37879)
(0.00837797 0.102677 0.382778)
(-0.00837798 0.102677 0.382778)
(-0.0247214 0.0993768 0.37879)
(-0.03985 0.0929942 0.370941)
(-0.0533599 0.0838427 0.359577)
(-0.0625644 0.0737222 0.345098)
(0.172056 0.204127 0.727846)
(0.145237 0.231368 0.747496)
(0.108428 0.255327 0.762136)
(0.0670843 0.271912 0.772034)
(0.0227078 0.280466 0.776983)
(-0.0227079 0.280466 0.776983)
(-0.0670844 0.271912 0.772034)
(-0.108428 0.255327 0.762136)
(-0.145237 0.231367 0.747496)
(-0.172056 0.204127 0.727846)
(0.222611 0.264331 0.92377)
(0.185806 0.296033 0.939599)
(0.137828 0.323714 0.950664)
(0.0848522 0.342652 0.957968)
(0.0286515 0.352355 0.96155)
(-0.0286516 0.352355 0.96155)
(-0.0848523 0.342652 0.957968)
(-0.137828 0.323714 0.950664)
(-0.185806 0.296033 0.939599)
(-0.222611 0.264331 0.92377)
(0.237598 0.281674 1.0229)
(0.196369 0.311536 1.0334)
(0.144762 0.337664 1.04007)
(0.0887075 0.355337 1.04433)
(0.0298853 0.364333 1.04637)
(-0.0298854 0.364333 1.04637)
(-0.0887077 0.355337 1.04433)
(-0.144762 0.337664 1.04007)
(-0.196369 0.311536 1.0334)
(-0.237598 0.281674 1.0229)
(0.235617 0.27883 1.07126)
(0.193128 0.304801 1.07721)
(0.141622 0.327661 1.08034)
(0.0864337 0.342989 1.08222)
(0.0290629 0.350744 1.08306)
(-0.029063 0.350744 1.08306)
(-0.0864338 0.342989 1.08222)
(-0.141622 0.327661 1.08034)
(-0.193128 0.304801 1.07721)
(-0.235617 0.27883 1.07126)
(0.22456 0.265263 1.09234)
(0.182668 0.286631 1.09492)
(0.133314 0.30559 1.09557)
(0.0810615 0.318229 1.09581)
(0.0272083 0.324586 1.09586)
(-0.0272085 0.324586 1.09586)
(-0.0810616 0.318229 1.09581)
(-0.133314 0.30559 1.09557)
(-0.182668 0.286631 1.09492)
(-0.22456 0.265263 1.09234)
(0.208174 0.245281 1.09894)
(0.168052 0.261809 1.09922)
(0.122093 0.27662 1.0983)
(0.0739773 0.286472 1.09753)
(0.0247886 0.291407 1.0971)
(-0.0247888 0.291407 1.0971)
(-0.0739775 0.286472 1.09753)
(-0.122093 0.276619 1.0983)
(-0.168052 0.261809 1.09922)
(-0.208174 0.245281 1.09894)
(0.188795 0.221616 1.09824)
(0.151228 0.23335 1.09706)
(0.109404 0.244005 1.09525)
(0.0660716 0.251126 1.09394)
(0.0221043 0.254693 1.09325)
(-0.0221046 0.254693 1.09325)
(-0.0660718 0.251126 1.09394)
(-0.109404 0.244005 1.09525)
(-0.151228 0.23335 1.09706)
(-0.188795 0.221616 1.09824)
(0.167959 0.19606 1.09424)
(0.133574 0.203193 1.09217)
(0.0962383 0.209823 1.08995)
(0.0579379 0.214383 1.08839)
(0.0193535 0.216687 1.0876)
(-0.0193538 0.216687 1.0876)
(-0.0579382 0.214383 1.08839)
(-0.0962385 0.209823 1.08995)
(-0.133574 0.203193 1.09217)
(-0.167959 0.19606 1.09424)
(0.146832 0.170265 1.08917)
(0.116292 0.17132 1.08663)
(0.0832063 0.17456 1.08426)
(0.0499072 0.176922 1.08267)
(0.0166413 0.178136 1.08187)
(-0.0166416 0.178136 1.08187)
(-0.0499075 0.176922 1.08267)
(-0.0832065 0.17456 1.08426)
(-0.116293 0.17132 1.08663)
(-0.146832 0.170265 1.08917)
(0.0111933 0.0142984 0.266567)
(0.00940378 0.0175886 0.278831)
(0.00710063 0.0202315 0.288875)
(0.00449481 0.0220434 0.295866)
(0.00153788 0.0229874 0.299444)
(-0.00153791 0.0229874 0.299444)
(-0.00449484 0.0220434 0.295866)
(-0.00710065 0.0202315 0.288875)
(-0.00940381 0.0175886 0.278831)
(-0.0111933 0.0142984 0.266567)
(0.0543838 0.0658037 0.629675)
(0.0466976 0.0791694 0.651629)
(0.0357381 0.0906217 0.669235)
(0.0225933 0.098736 0.681343)
(0.00773153 0.102995 0.687489)
(-0.00773161 0.102995 0.687489)
(-0.0225934 0.098736 0.681343)
(-0.0357382 0.0906216 0.669235)
(-0.0466976 0.0791693 0.651629)
(-0.0543839 0.0658037 0.629675)
(0.097693 0.116692 0.876745)
(0.0833454 0.138005 0.90058)
(0.0634482 0.156295 0.919275)
(0.0398707 0.169202 0.931976)
(0.0136034 0.175943 0.938372)
(-0.0136035 0.175942 0.938372)
(-0.0398709 0.169202 0.931976)
(-0.0634483 0.156295 0.919275)
(-0.0833455 0.138005 0.90058)
(-0.0976931 0.116692 0.876745)
(0.133692 0.158518 1.04459)
(0.113087 0.184604 1.06659)
(0.0855343 0.206883 1.08344)
(0.0534442 0.222492 1.09474)
(0.0181826 0.230598 1.10038)
(-0.0181828 0.230598 1.10038)
(-0.0534444 0.222492 1.09474)
(-0.0855345 0.206883 1.08344)
(-0.113087 0.184604 1.06659)
(-0.133693 0.158517 1.04459)
(0.159429 0.187959 1.15766)
(0.133699 0.21576 1.17627)
(0.100488 0.239342 1.19014)
(0.0624638 0.255744 1.19932)
(0.0211964 0.264214 1.20387)
(-0.0211967 0.264214 1.20387)
(-0.062464 0.255744 1.19932)
(-0.100489 0.239342 1.19014)
(-0.133699 0.215759 1.17627)
(-0.159429 0.187959 1.15766)
(0.174955 0.2052 1.23268)
(0.145475 0.232229 1.24748)
(0.108678 0.254957 1.25818)
(0.0672302 0.270657 1.26516)
(0.0227594 0.278722 1.26858)
(-0.0227597 0.278722 1.26858)
(-0.0672305 0.270657 1.26516)
(-0.108678 0.254957 1.25818)
(-0.145475 0.232229 1.24748)
(-0.174955 0.2052 1.23268)
(0.181341 0.211595 1.28146)
(0.149492 0.235959 1.29265)
(0.111022 0.256203 1.30046)
(0.0683692 0.270103 1.30546)
(0.0230928 0.27721 1.30789)
(-0.0230932 0.27721 1.30789)
(-0.0683696 0.270103 1.30546)
(-0.111022 0.256203 1.30046)
(-0.149493 0.235959 1.29265)
(-0.181342 0.211595 1.28146)
(0.179938 0.208788 1.31235)
(0.147047 0.229116 1.32042)
(0.108584 0.24573 1.32583)
(0.066582 0.257084 1.32922)
(0.0224412 0.262869 1.33084)
(-0.0224416 0.262869 1.33084)
(-0.0665824 0.257083 1.32922)
(-0.108584 0.24573 1.32583)
(-0.147048 0.229115 1.32042)
(-0.179939 0.208788 1.31235)
(0.172213 0.198463 1.3312)
(0.139565 0.213832 1.33676)
(0.102474 0.226037 1.3403)
(0.0625665 0.234395 1.34246)
(0.0210429 0.23865 1.34347)
(-0.0210434 0.23865 1.34347)
(-0.062567 0.234395 1.34246)
(-0.102475 0.226037 1.3403)
(-0.139565 0.213832 1.33675)
(-0.172213 0.198463 1.3312)
(0.159738 0.183426 1.34214)
(0.128597 0.191266 1.34583)
(0.0936484 0.198727 1.34799)
(0.0568902 0.203872 1.34923)
(0.0190869 0.20649 1.34979)
(-0.0190875 0.20649 1.34979)
(-0.0568907 0.203872 1.34923)
(-0.0936489 0.198727 1.34799)
(-0.128598 0.191266 1.34583)
(-0.159738 0.183425 1.34214)
(0.00111876 0.00124925 0.157782)
(0.00113023 0.00159548 0.166089)
(0.000881058 0.00200288 0.173025)
(0.000589716 0.00230465 0.177935)
(0.000205482 0.00247186 0.180477)
(-0.000205512 0.00247185 0.180477)
(-0.000589745 0.00230464 0.177935)
(-0.000881085 0.00200287 0.173025)
(-0.00113026 0.00159546 0.166089)
(-0.00111879 0.00124923 0.157782)
(0.0179723 0.0208549 0.442069)
(0.0161625 0.0254423 0.462292)
(0.0126491 0.0297597 0.4789)
(0.00812369 0.0329484 0.490555)
(0.00279919 0.0346612 0.496554)
(-0.00279929 0.0346612 0.496554)
(-0.00812378 0.0329484 0.490555)
(-0.0126492 0.0297597 0.4789)
(-0.0161626 0.0254423 0.462292)
(-0.0179724 0.0208549 0.442069)
(0.0409474 0.0476634 0.685879)
(0.0361632 0.0572601 0.713481)
(0.0280932 0.0660138 0.735785)
(0.0178948 0.0724141 0.751308)
(0.0061439 0.0758223 0.759257)
(-0.00614405 0.0758223 0.759257)
(-0.0178949 0.0724141 0.751308)
(-0.0280934 0.0660138 0.735785)
(-0.0361633 0.05726 0.713481)
(-0.0409475 0.0476633 0.685879)
(0.0657117 0.0765512 0.888643)
(0.0572714 0.0906713 0.919838)
(0.0441613 0.103304 0.944625)
(0.0279493 0.112443 0.961729)
(0.00956679 0.117274 0.970444)
(-0.00956701 0.117274 0.970444)
(-0.0279495 0.112443 0.961729)
(-0.0441615 0.103304 0.944624)
(-0.0572715 0.0906712 0.919838)
(-0.0657118 0.0765511 0.888643)
(0.0878044 0.102173 1.05377)
(0.0756551 0.119347 1.08575)
(0.0579213 0.134484 1.11073)
(0.036451 0.145328 1.12783)
(0.0124428 0.151024 1.13649)
(-0.0124431 0.151024 1.13649)
(-0.0364513 0.145328 1.12783)
(-0.0579216 0.134484 1.11073)
(-0.0756553 0.119347 1.08575)
(-0.0878046 0.102173 1.05377)
(0.104995 0.121863 1.18613)
(0.0895154 0.140342 1.21701)
(0.0680618 0.156406 1.24071)
(0.0426088 0.167812 1.25679)
(0.0145078 0.173766 1.2649)
(-0.0145081 0.173766 1.2649)
(-0.0426091 0.167812 1.25679)
(-0.0680622 0.156406 1.24071)
(-0.0895157 0.140342 1.21701)
(-0.104996 0.121863 1.18613)
(0.116448 0.13467 1.29087)
(0.0982675 0.152774 1.31948)
(0.0742131 0.168278 1.34107)
(0.0462274 0.179197 1.3556)
(0.0157012 0.184866 1.3629)
(-0.0157017 0.184866 1.3629)
(-0.0462278 0.179197 1.3556)
(-0.0742135 0.168278 1.34107)
(-0.0982679 0.152774 1.31948)
(-0.116448 0.13467 1.29087)
(0.122049 0.140496 1.37276)
(0.101955 0.156761 1.3985)
(0.0764858 0.170442 1.41764)
(0.0474109 0.180005 1.43041)
(0.0160643 0.184946 1.43678)
(-0.0160648 0.184946 1.43678)
(-0.0474113 0.180005 1.43041)
(-0.0764863 0.170442 1.41763)
(-0.101956 0.156761 1.3985)
(-0.122049 0.140496 1.37276)
(0.122208 0.139793 1.43594)
(0.101081 0.153051 1.45869)
(0.0753028 0.163878 1.47535)
(0.0464373 0.171414 1.48635)
(0.0156941 0.175292 1.4918)
(-0.0156947 0.175292 1.4918)
(-0.0464378 0.171414 1.48635)
(-0.0753033 0.163878 1.47534)
(-0.101081 0.153051 1.45869)
(-0.122209 0.139793 1.43594)
(0.117751 0.13437 1.48379)
(0.0964455 0.142315 1.50405)
(0.0711428 0.149505 1.51833)
(0.0436001 0.154485 1.52762)
(0.0146905 0.157033 1.53219)
(-0.014691 0.157033 1.53219)
(-0.0436006 0.154485 1.52762)
(-0.0711433 0.149505 1.51833)
(-0.096446 0.142315 1.50405)
(-0.117752 0.13437 1.48379)
(0.000710296 0.000933273 0.138154)
(0.000554869 0.00117026 0.144975)
(0.000379776 0.0013382 0.150528)
(0.000235379 0.0014375 0.154426)
(7.87927e-05 0.00148716 0.156436)
(-7.88188e-05 0.00148716 0.156436)
(-0.000235404 0.00143749 0.154426)
(-0.000379801 0.00133819 0.150528)
(-0.000554893 0.00117025 0.144975)
(-0.000710316 0.000933256 0.138154)
(0.00699585 0.00836669 0.396149)
(0.00607374 0.0103128 0.414248)
(0.00466986 0.0119964 0.428898)
(0.00297897 0.0132047 0.439151)
(0.001023 0.0138474 0.444428)
(-0.00102309 0.0138474 0.444428)
(-0.00297906 0.0132046 0.439151)
(-0.00466994 0.0119963 0.428898)
(-0.00607381 0.0103127 0.414248)
(-0.00699591 0.00836665 0.396149)
(0.0171454 0.0202474 0.629654)
(0.0149543 0.0246512 0.656362)
(0.0115719 0.0285155 0.677813)
(0.00737148 0.0313204 0.692762)
(0.00253135 0.0328122 0.700433)
(-0.00253149 0.0328122 0.700433)
(-0.00737162 0.0313203 0.692761)
(-0.011572 0.0285155 0.677812)
(-0.0149545 0.0246512 0.656362)
(-0.0171455 0.0202473 0.629654)
(0.0293977 0.0345193 0.836708)
(0.0255569 0.0415226 0.869319)
(0.0197503 0.0476671 0.895262)
(0.0125412 0.0521224 0.913252)
(0.00430056 0.0544848 0.922455)
(-0.00430077 0.0544848 0.922455)
(-0.0125414 0.0521224 0.913252)
(-0.0197505 0.0476671 0.895262)
(-0.0255571 0.0415226 0.869319)
(-0.0293979 0.0345193 0.836708)
(0.0417132 0.0487617 1.01723)
(0.0360386 0.0579113 1.0533)
(0.027738 0.065893 1.08169)
(0.0175433 0.0716513 1.10126)
(0.00600435 0.0746915 1.11125)
(-0.00600462 0.0746915 1.11125)
(-0.0175435 0.0716512 1.10126)
(-0.0277383 0.0658929 1.08169)
(-0.0360388 0.0579112 1.0533)
(-0.0417134 0.0487616 1.01723)
(0.0526131 0.0612314 1.17236)
(0.0451091 0.0717314 1.20984)
(0.0345353 0.0808052 1.23899)
(0.0217463 0.0873077 1.25899)
(0.00742684 0.0907242 1.26915)
(-0.00742717 0.0907242 1.26915)
(-0.0217467 0.0873077 1.25899)
(-0.0345356 0.0808051 1.23899)
(-0.0451094 0.0717313 1.20984)
(-0.0526134 0.0612313 1.17236)
(0.0611244 0.0708029 1.3039)
(0.0519577 0.0817067 1.34116)
(0.0395394 0.091009 1.36981)
(0.0247815 0.0976255 1.38936)
(0.00844392 0.101084 1.39925)
(-0.00844432 0.101084 1.39925)
(-0.0247819 0.0976255 1.38936)
(-0.0395398 0.091009 1.36981)
(-0.051958 0.0817066 1.34115)
(-0.0611247 0.0708028 1.3039)
(0.0666679 0.0768089 1.41391)
(0.0561481 0.0871527 1.44975)
(0.0424531 0.0958322 1.47703)
(0.0264786 0.101955 1.49551)
(0.0090002 0.10514 1.50484)
(-0.00900066 0.10514 1.50484)
(-0.026479 0.101955 1.49551)
(-0.0424535 0.0958321 1.47703)
(-0.0561485 0.0871526 1.44975)
(-0.0666682 0.0768088 1.41391)
(0.0690578 0.0789979 1.50439)
(0.0576058 0.0879149 1.53815)
(0.0432457 0.095187 1.56353)
(0.0268274 0.100281 1.58058)
(0.00909395 0.102915 1.58913)
(-0.00909445 0.102915 1.58913)
(-0.0268279 0.100281 1.58058)
(-0.0432461 0.095187 1.56353)
(-0.0576062 0.0879148 1.53815)
(-0.0690581 0.0789979 1.50439)
(0.0684819 0.0781548 1.57709)
(0.0565286 0.0840658 1.60904)
(0.0420061 0.0892048 1.63216)
(0.0258856 0.092771 1.64748)
(0.00874567 0.0946011 1.6551)
(-0.00874621 0.0946011 1.6551)
(-0.0258861 0.092771 1.64748)
(-0.0420066 0.0892048 1.63216)
(-0.0565291 0.0840658 1.60904)
(-0.0684823 0.0781548 1.57709)
(0.00012799 0.000139747 0.127329)
(0.000118699 0.000183382 0.133689)
(8.76455e-05 0.000228232 0.138859)
(5.99377e-05 0.00025966 0.142494)
(2.06918e-05 0.000277467 0.144369)
(-2.07133e-05 0.000277465 0.144369)
(-5.99588e-05 0.000259655 0.142494)
(-8.76659e-05 0.000228224 0.138859)
(-0.000118718 0.00018337 0.133689)
(-0.000128007 0.000139734 0.127329)
(0.00247371 0.00286121 0.369226)
(0.00221262 0.0035474 0.38652)
(0.00173289 0.00417969 0.400527)
(0.00111986 0.00465007 0.410356)
(0.000386649 0.00490537 0.41542)
(-0.000386719 0.00490536 0.41542)
(-0.00111993 0.00465006 0.410356)
(-0.00173296 0.00417967 0.400527)
(-0.00221268 0.00354737 0.38652)
(-0.00247376 0.00286117 0.369226)
(0.00673775 0.00781677 0.593387)
(0.00598565 0.00958247 0.619618)
(0.00469113 0.0111862 0.640751)
(0.00301436 0.0123792 0.655536)
(0.0010392 0.0130221 0.663141)
(-0.00103933 0.0130221 0.663141)
(-0.00301448 0.0123792 0.655536)
(-0.00469124 0.0111862 0.640751)
(-0.00598575 0.00958242 0.619618)
(-0.00673784 0.00781671 0.593387)
(0.0123611 0.0143436 0.798249)
(0.0109087 0.0173906 0.831327)
(0.00852441 0.0201322 0.857789)
(0.00545412 0.022161 0.876236)
(0.00187704 0.0232488 0.885705)
(-0.00187722 0.0232488 0.885705)
(-0.00545429 0.022161 0.876236)
(-0.00852457 0.0201321 0.857788)
(-0.0109089 0.0173906 0.831327)
(-0.0123612 0.0143435 0.798249)
(0.0184779 0.0214074 0.98303)
(0.0161882 0.0256481 1.02091)
(0.0125929 0.0294279 1.05096)
(0.00802314 0.0322064 1.07183)
(0.00275578 0.0336888 1.08251)
(-0.00275601 0.0336888 1.08251)
(-0.00802337 0.0322064 1.07183)
(-0.0125931 0.0294279 1.05096)
(-0.0161884 0.025648 1.02091)
(-0.0184781 0.0214073 0.98303)
(0.0243291 0.028107 1.14758)
(0.0211441 0.033236 1.18836)
(0.0163586 0.0377583 1.22042)
(0.010376 0.0410575 1.24258)
(0.00355629 0.0428087 1.2539)
(-0.00355658 0.0428087 1.2539)
(-0.0103763 0.0410575 1.24258)
(-0.0163589 0.0377583 1.22042)
(-0.0211444 0.033236 1.18836)
(-0.0243293 0.0281069 1.14758)
(0.0293098 0.033734 1.29222)
(0.0252509 0.0393063 1.3342)
(0.0194162 0.0441552 1.3669)
(0.0122573 0.0476639 1.3894)
(0.00419132 0.0495162 1.40085)
(-0.00419165 0.0495162 1.40085)
(-0.0122576 0.0476639 1.3894)
(-0.0194165 0.0441552 1.36689)
(-0.0252512 0.0393062 1.3342)
(-0.02931 0.0337339 1.29222)
(0.0329768 0.0377692 1.41751)
(0.0281445 0.0432734 1.45928)
(0.0214966 0.0479857 1.49153)
(0.013502 0.0513641 1.5136)
(0.00460525 0.0531373 1.52479)
(-0.00460563 0.0531373 1.52479)
(-0.0135024 0.0513641 1.5136)
(-0.0214969 0.0479857 1.49152)
(-0.0281448 0.0432734 1.45928)
(-0.0329771 0.0377692 1.4175)
(0.0350939 0.0399171 1.52406)
(0.029652 0.044852 1.5647)
(0.022474 0.0489573 1.5957)
(0.0140336 0.0518717 1.61675)
(0.00477237 0.0533904 1.62736)
(-0.00477279 0.0533904 1.62736)
(-0.014034 0.0518717 1.61675)
(-0.0224744 0.0489573 1.5957)
(-0.0296523 0.044852 1.5647)
(-0.0350942 0.039917 1.52406)
(0.0356385 0.0404813 1.61236)
(0.0297459 0.0439609 1.652)
(0.0222947 0.0469723 1.68111)
(0.0138192 0.0490797 1.70059)
(0.00468215 0.0501672 1.71034)
(-0.00468259 0.0501672 1.71034)
(-0.0138196 0.0490797 1.70059)
(-0.0222951 0.0469723 1.68111)
(-0.0297462 0.0439609 1.652)
(-0.0356389 0.0404813 1.61236)
(7.79157e-05 0.000105391 0.124442)
(5.43186e-05 0.000133737 0.130608)
(3.31052e-05 0.000150071 0.135588)
(2.01512e-05 0.000158062 0.139084)
(6.52684e-06 0.000161856 0.140886)
(-6.54356e-06 0.000161855 0.140886)
(-2.01676e-05 0.000158058 0.139084)
(-3.31214e-05 0.000150065 0.135588)
(-5.43341e-05 0.000133729 0.130608)
(-7.79294e-05 0.00010538 0.124442)
(0.00101194 0.00120932 0.360951)
(0.000868425 0.00150014 0.377809)
(0.0006636 0.0017446 0.391406)
(0.000423543 0.00191987 0.400936)
(0.000145337 0.00201353 0.405844)
(-0.000145392 0.00201353 0.405844)
(-0.000423596 0.00191986 0.400936)
(-0.000663652 0.00174458 0.391406)
(-0.000868474 0.00150012 0.377809)
(-0.00101198 0.00120929 0.360951)
(0.00278845 0.00328367 0.5813)
(0.0024339 0.00403911 0.607111)
(0.00188886 0.00469782 0.627853)
(0.00120813 0.00518103 0.642362)
(0.000415618 0.0054401 0.649825)
(-0.000415714 0.00544009 0.649825)
(-0.00120822 0.00518101 0.642362)
(-0.00188895 0.00469779 0.627852)
(-0.00243398 0.00403907 0.607111)
(-0.00278853 0.00328362 0.5813)
(0.00522521 0.00611458 0.784692)
(0.0045741 0.00745393 0.817663)
(0.00356108 0.00863378 0.844018)
(0.00227577 0.00950284 0.862407)
(0.000782878 0.00996832 0.871852)
(-0.000783016 0.00996832 0.871852)
(-0.00227591 0.00950282 0.862407)
(-0.00356121 0.00863375 0.844018)
(-0.00457422 0.00745388 0.817663)
(-0.00522532 0.00611453 0.784692)
(0.00800402 0.00932278 0.970579)
(0.00699103 0.0112469 1.00891)
(0.00543604 0.0129424 1.03936)
(0.00346586 0.0141887 1.06054)
(0.00119105 0.0148543 1.07139)
(-0.00119123 0.0148543 1.07139)
(-0.00346604 0.0141886 1.06054)
(-0.00543621 0.0129424 1.03936)
(-0.00699118 0.0112469 1.00891)
(-0.00800416 0.00932272 0.970579)
(0.0108014 0.0125252 1.13866)
(0.00938758 0.0149283 1.18062)
(0.00727397 0.0170343 1.2137)
(0.00462231 0.0185746 1.23663)
(0.00158592 0.0193941 1.24836)
(-0.00158614 0.0193941 1.24836)
(-0.00462253 0.0185746 1.23663)
(-0.00727418 0.0170342 1.2137)
(-0.00938777 0.0149282 1.18062)
(-0.0108015 0.0125251 1.13866)
(0.0133195 0.0153727 1.28885)
(0.0114974 0.0180656 1.33279)
(0.00886471 0.0204025 1.36717)
(0.00561042 0.0221001 1.39091)
(0.00192108 0.022999 1.40303)
(-0.00192134 0.022999 1.40303)
(-0.00561068 0.0221001 1.39091)
(-0.00886495 0.0204025 1.36717)
(-0.0114976 0.0180655 1.33279)
(-0.0133197 0.0153727 1.28884)
(0.0153082 0.0175705 1.42115)
(0.0131068 0.020311 1.46564)
(0.010045 0.0226565 1.50017)
(0.00632766 0.0243455 1.52391)
(0.00216151 0.0252348 1.53598)
(-0.00216181 0.0252348 1.53598)
(-0.00632795 0.0243455 1.52391)
(-0.0100453 0.0226565 1.50017)
(-0.0131071 0.020311 1.46564)
(-0.0153084 0.0175705 1.42115)
(0.0166036 0.0189138 1.53554)
(0.0140841 0.0214461 1.57955)
(0.0107147 0.0235561 1.61334)
(0.00671085 0.0250599 1.63639)
(0.00228567 0.0258457 1.64804)
(-0.002286 0.0258457 1.64804)
(-0.00671117 0.0250599 1.63639)
(-0.010715 0.0235561 1.61334)
(-0.0140844 0.021446 1.57955)
(-0.0166039 0.0189138 1.53554)
(0.0171459 0.0194997 1.63181)
(0.0143669 0.0213654 1.67544)
(0.0108097 0.0229656 1.70769)
(0.00672012 0.0240887 1.72938)
(0.00228025 0.0246695 1.74026)
(-0.00228059 0.0246695 1.74026)
(-0.00672046 0.0240887 1.72938)
(-0.01081 0.0229656 1.70769)
(-0.0143672 0.0213654 1.67544)
(-0.0171462 0.0194997 1.63181)
(1.12225e-05 1.38018e-05 0.122997)
(7.50375e-06 1.90098e-05 0.129098)
(4.06168e-06 2.2413e-05 0.134023)
(3.01355e-06 2.43401e-05 0.13748)
(1.00303e-06 2.54569e-05 0.139263)
(-1.01572e-06 2.54559e-05 0.139263)
(-3.026e-06 2.43372e-05 0.13748)
(-4.07383e-06 2.24082e-05 0.134023)
(-7.51548e-06 1.9003e-05 0.129098)
(-1.12327e-05 1.37934e-05 0.122997)
(0.00034381 0.00040179 0.356865)
(0.000299944 0.000501791 0.373559)
(0.000232162 0.000589017 0.387017)
(0.000149811 0.000653427 0.396452)
(5.16478e-05 0.000688414 0.401312)
(-5.16892e-05 0.000688411 0.401312)
(-0.000149852 0.000653419 0.396452)
(-0.000232201 0.000589004 0.387017)
(-0.000299981 0.000501772 0.373559)
(-0.000343842 0.000401767 0.356865)
(0.00102984 0.00119847 0.575193)
(0.000907982 0.00148272 0.600825)
(0.000710506 0.00173556 0.62142)
(0.0004573 0.00192434 0.635833)
(0.00015777 0.0020265 0.643249)
(-0.000157842 0.0020265 0.643249)
(-0.00045737 0.00192432 0.635833)
(-0.000710574 0.00173554 0.62142)
(-0.000908046 0.00148269 0.600825)
(-0.0010299 0.00119844 0.575193)
(0.00202164 0.00234653 0.777501)
(0.00178447 0.00287718 0.810396)
(0.001399 0.0033514 0.836702)
(0.000898613 0.00370558 0.855073)
(0.000309877 0.00389673 0.864512)
(-0.00030998 0.00389673 0.864512)
(-0.000898715 0.00370557 0.855073)
(-0.00139909 0.00335138 0.836702)
(-0.00178456 0.00287715 0.810395)
(-0.00202171 0.00234649 0.777501)
(0.00320272 0.0037063 0.963406)
(0.00281961 0.00449858 1.00189)
(0.00220717 0.00520544 1.03249)
(0.00141401 0.00573157 1.0538)
(0.000487064 0.00601457 1.06473)
(-0.0004872 0.00601456 1.06473)
(-0.00141415 0.00573155 1.0538)
(-0.00220729 0.00520542 1.03249)
(-0.00281972 0.00449854 1.00189)
(-0.00320282 0.00370625 0.963406)
(0.00444105 0.00512095 1.13263)
(0.00389074 0.00614248 1.17505)
(0.00303505 0.00704851 1.20856)
(0.00193794 0.00771915 1.23183)
(0.000666476 0.0080784 1.24375)
(-0.000666643 0.0080784 1.24375)
(-0.0019381 0.00771914 1.23183)
(-0.00303521 0.00704848 1.20856)
(-0.00389088 0.00614244 1.17505)
(-0.00444117 0.0051209 1.13263)
(0.00560377 0.00643425 1.28497)
(0.00487709 0.00761111 1.32976)
(0.00378595 0.00864491 1.36488)
(0.0024077 0.00940462 1.38919)
(0.000826382 0.00980958 1.40161)
(-0.000826579 0.00980957 1.40161)
(-0.00240789 0.00940461 1.38919)
(-0.00378614 0.00864488 1.36488)
(-0.00487725 0.00761108 1.32975)
(-0.00560392 0.00643421 1.28497)
(0.0065701 0.00750363 1.42025)
(0.0056728 0.00873171 1.46596)
(0.00437717 0.00979591 1.50155)
(0.00277047 0.0105707 1.52608)
(0.000948591 0.0109811 1.53857)
(-0.000948816 0.0109811 1.53857)
(-0.00277069 0.0105707 1.52608)
(-0.00437738 0.00979589 1.50155)
(-0.00567298 0.00873168 1.46596)
(-0.00657026 0.00750359 1.42024)
(0.00725303 0.00822185 1.53816)
(0.00620379 0.00938455 1.58375)
(0.00475035 0.0103649 1.61889)
(0.00298869 0.01107 1.64291)
(0.00102015 0.0114404 1.65508)
(-0.0010204 0.0114404 1.65508)
(-0.00298893 0.01107 1.64291)
(-0.00475058 0.0103649 1.61888)
(-0.00620399 0.00938454 1.58374)
(-0.00725321 0.00822183 1.53815)
(0.00760928 0.00862016 1.63817)
(0.00642241 0.009507 1.68373)
(0.00486089 0.0102663 1.71755)
(0.00303408 0.0108025 1.74034)
(0.00103151 0.0110809 1.75179)
(-0.00103177 0.0110809 1.75179)
(-0.00303434 0.0108025 1.74034)
(-0.00486113 0.0102663 1.71755)
(-0.00642262 0.009507 1.68373)
(-0.00760947 0.00862015 1.63817)
(7.22494e-06 1.16615e-05 0.122631)
(2.81323e-06 1.52377e-05 0.128707)
(3.50025e-07 1.62421e-05 0.133606)
(-4.99283e-08 1.61974e-05 0.137045)
(-1.02144e-07 1.60658e-05 0.138817)
(9.28569e-08 1.60651e-05 0.138817)
(4.08403e-08 1.61953e-05 0.137045)
(-3.58783e-07 1.62386e-05 0.133606)
(-2.82184e-06 1.52327e-05 0.128707)
(-7.23214e-06 1.16553e-05 0.122631)
(0.000129156 0.000157393 0.355657)
(0.000106568 0.000196921 0.372278)
(7.9589e-05 0.00022784 0.385664)
(5.039e-05 0.000249507 0.395048)
(1.72064e-05 0.000261002 0.399881)
(-1.72367e-05 0.000261 0.399881)
(-5.04195e-05 0.000249501 0.395048)
(-7.96173e-05 0.00022783 0.385664)
(-0.000106595 0.000196907 0.372278)
(-0.000129179 0.000157376 0.355657)
(0.000389765 0.000461858 0.573245)
(0.00033592 0.000573263 0.598784)
(0.000259267 0.000667917 0.619291)
(0.000165674 0.000737312 0.633641)
(5.69593e-05 0.000774567 0.641025)
(-5.70118e-05 0.000774564 0.641025)
(-0.000165725 0.000737303 0.633641)
(-0.000259316 0.000667903 0.61929)
(-0.000335966 0.000573242 0.598783)
(-0.000389804 0.000461834 0.573245)
(0.000777116 0.000910895 0.775096)
(0.000678394 0.0011219 0.807926)
(0.000528541 0.00130603 0.834173)
(0.000338495 0.00144253 0.852503)
(0.000116567 0.00151599 0.861922)
(-0.000116642 0.00151599 0.861922)
(-0.000338569 0.00144252 0.852502)
(-0.000528611 0.00130601 0.834172)
(-0.00067846 0.00112188 0.807926)
(-0.000777173 0.000910865 0.775096)
(0.00125344 0.00145936 0.960945)
(0.00109756 0.00178079 0.999446)
(0.00085698 0.00206377 1.03006)
(0.000548574 0.00227387 1.05139)
(0.000188898 0.00238682 1.06233)
(-0.000188997 0.00238682 1.06233)
(-0.00054867 0.00227386 1.05139)
(-0.000857072 0.00206375 1.03006)
(-0.00109764 0.00178076 0.999446)
(-0.00125351 0.00145932 0.960945)
(0.0017696 0.00204904 1.13057)
(0.00154698 0.00247241 1.17314)
(0.00120624 0.00284505 1.20678)
(0.000770527 0.00312089 1.23015)
(0.000265063 0.00326877 1.24213)
(-0.000265185 0.00326877 1.24213)
(-0.000770646 0.00312088 1.23015)
(-0.00120635 0.00284503 1.20678)
(-0.00154708 0.00247238 1.17314)
(-0.00176969 0.002049 1.13056)
(0.00227102 0.00261571 1.28375)
(0.00197622 0.00311382 1.32885)
(0.00153541 0.00354953 1.36425)
(0.000977585 0.00387019 1.38877)
(0.00033574 0.00404135 1.40131)
(-0.000335883 0.00404134 1.40131)
(-0.000977725 0.00387017 1.38877)
(-0.00153554 0.00354951 1.36425)
(-0.00197634 0.0031138 1.32885)
(-0.00227112 0.00261568 1.28375)
(0.00270404 0.00309585 1.42026)
(0.0023374 0.00362636 1.46647)
(0.00180654 0.00408522 1.50249)
(0.00114525 0.00441996 1.52734)
(0.000392447 0.00459758 1.54001)
(-0.00039261 0.00459758 1.54001)
(-0.00114541 0.00441995 1.52734)
(-0.00180669 0.0040852 1.50249)
(-0.00233754 0.00362634 1.46647)
(-0.00270416 0.00309583 1.42026)
(0.00302653 0.00343723 1.53968)
(0.00259375 0.00394985 1.58595)
(0.00199025 0.0043821 1.62167)
(0.00125443 0.00469358 1.64612)
(0.00042857 0.00485746 1.65851)
(-0.000428748 0.00485746 1.65851)
(-0.0012546 0.00469357 1.64611)
(-0.00199041 0.00438209 1.62167)
(-0.0025939 0.00394983 1.58595)
(-0.00302667 0.00343721 1.53968)
(0.00321385 0.00364652 1.64135)
(0.00271846 0.00404827 1.68779)
(0.00206236 0.00439072 1.7223)
(0.0012897 0.00463297 1.74559)
(0.000438858 0.0047589 1.7573)
(-0.000439046 0.0047589 1.7573)
(-0.00128988 0.00463297 1.74559)
(-0.00206254 0.00439071 1.7223)
(-0.00271862 0.00404827 1.68779)
(-0.003214 0.00364651 1.64135)
(-6.44917e-07 -9.51728e-08 0.122469)
(-1.60126e-06 3.11849e-07 0.128537)
(-1.74175e-06 1.00545e-07 0.133429)
(-1.14013e-06 -2.3222e-07 0.136863)
(-4.12784e-07 -4.22292e-07 0.138633)
(4.06181e-07 -4.22796e-07 0.138633)
(1.13371e-06 -2.33726e-07 0.136863)
(1.73558e-06 9.81167e-08 0.133429)
(1.59528e-06 3.08386e-07 0.128537)
(6.40006e-07 -9.93484e-08 0.122469)
(3.46966e-05 4.18644e-05 0.355135)
(2.83145e-05 5.33362e-05 0.371729)
(2.10916e-05 6.23348e-05 0.385092)
(1.34402e-05 6.87757e-05 0.394459)
(4.59391e-06 7.22408e-05 0.399283)
(-4.61535e-06 7.22394e-05 0.399283)
(-1.3461e-05 6.87714e-05 0.394459)
(-2.11115e-05 6.2328e-05 0.385092)
(-2.83335e-05 5.33265e-05 0.371729)
(-3.47123e-05 4.18528e-05 0.355134)
(0.000121065 0.000142265 0.57239)
(0.000104619 0.000178664 0.597891)
(8.1136e-05 0.000209898 0.618365)
(5.21096e-05 0.000233169 0.632694)
(1.79507e-05 0.000245771 0.640066)
(-1.79878e-05 0.000245769 0.640066)
(-5.21456e-05 0.000233162 0.632694)
(-8.11704e-05 0.000209887 0.618365)
(-0.000104652 0.000178649 0.597891)
(-0.000121092 0.000142248 0.57239)
(0.0002582 0.000300556 0.774004)
(0.000226578 0.000373779 0.806803)
(0.000177543 0.000438299 0.833023)
(0.000114236 0.000486774 0.851336)
(3.94201e-05 0.00051305 0.860748)
(-3.94735e-05 0.000513047 0.860748)
(-0.000114288 0.000486766 0.851336)
(-0.000177593 0.000438285 0.833023)
(-0.000226624 0.00037376 0.806803)
(-0.00025824 0.000300535 0.774004)
(0.000434776 0.000503091 0.959763)
(0.000383089 0.00061927 0.998261)
(0.000300945 0.00072253 1.02887)
(0.000193529 0.000800126 1.05021)
(6.67818e-05 0.000842119 1.06115)
(-6.68514e-05 0.000842115 1.06115)
(-0.000193597 0.000800116 1.05021)
(-0.000301009 0.000722514 1.02887)
(-0.000383149 0.000619249 0.998261)
(-0.000434828 0.000503067 0.959763)
(0.00063348 0.000729316 1.12947)
(0.000557592 0.00088719 1.17209)
(0.000437521 0.00102748 1.20578)
(0.000280773 0.00113251 1.22919)
(9.67952e-05 0.00118918 1.24119)
(-9.68809e-05 0.00118917 1.24119)
(-0.000280856 0.0011325 1.22919)
(-0.000437601 0.00102747 1.20578)
(-0.000557666 0.000887169 1.17209)
(-0.000633544 0.000729291 1.12947)
(0.000833374 0.000954578 1.28293)
(0.000730482 0.00114513 1.32814)
(0.000571182 0.00131345 1.36365)
(0.000365343 0.00143865 1.38825)
(0.000125744 0.00150588 1.40083)
(-0.000125845 0.00150587 1.40083)
(-0.000365442 0.00143864 1.38825)
(-0.000571276 0.00131344 1.36365)
(-0.000730569 0.00114511 1.32814)
(-0.00083345 0.000954554 1.28293)
(0.00101264 0.00115306 1.41988)
(0.000881946 0.00136056 1.46628)
(0.000685975 0.0015418 1.50248)
(0.000436824 0.00167531 1.52745)
(0.000150003 0.00174654 1.54019)
(-0.000150117 0.00174653 1.54019)
(-0.000436936 0.0016753 1.52745)
(-0.000686081 0.00154179 1.50247)
(-0.000882044 0.00136054 1.46628)
(-0.00101273 0.00115304 1.41988)
(0.00115319 0.00130261 1.53989)
(0.000995645 0.00150734 1.58642)
(0.00076859 0.00168147 1.62238)
(0.00048646 0.00180793 1.647)
(0.000166519 0.00187476 1.65949)
(-0.000166645 0.00187475 1.65949)
(-0.000486583 0.00180792 1.647)
(-0.000768707 0.00168146 1.62238)
(-0.000995753 0.00150732 1.58642)
(-0.00115328 0.00130259 1.53988)
(0.00124306 0.0014046 1.64222)
(0.00105819 0.00156956 1.689)
(0.000807165 0.00170975 1.72381)
(0.000506619 0.00180941 1.74731)
(0.000172683 0.00186138 1.75913)
(-0.000172817 0.00186138 1.75913)
(-0.00050675 0.0018094 1.74731)
(-0.00080729 0.00170974 1.72381)
(-0.00105831 0.00156956 1.689)
(-0.00124317 0.00140459 1.64222)
(-3.52953e-08 6.87569e-07 0.122447)
(-8.47021e-07 1.04019e-06 0.128513)
(-1.03698e-06 8.67674e-07 0.133401)
(-7.55866e-07 5.80715e-07 0.136833)
(-2.81514e-07 3.96993e-07 0.138602)
(2.76979e-07 3.96644e-07 0.138602)
(7.51455e-07 5.79685e-07 0.136833)
(1.03281e-06 8.65992e-07 0.133401)
(8.43121e-07 1.03789e-06 0.128513)
(3.20338e-08 6.84882e-07 0.122447)
(9.42757e-06 1.26015e-05 0.355021)
(6.42267e-06 1.63039e-05 0.371605)
(4.13291e-06 1.85708e-05 0.384957)
(2.42003e-06 1.99594e-05 0.394317)
(7.86002e-07 2.06509e-05 0.399137)
(-8.0071e-07 2.06498e-05 0.399137)
(-2.43432e-06 1.99565e-05 0.394317)
(-4.1464e-06 1.8566e-05 0.384957)
(-6.43517e-06 1.62975e-05 0.371605)