/*--------------------------------*- C++ -*----------------------------------*\
| =========                 |                                                 |
| \\      /  F ield         | OpenFOAM: The Open Source CFD Toolbox           |
|  \\    /   O peration     | Version:  2106                                  |
|   \\  /    A nd           | Website:  www.openfoam.com                      |
|    \\/     M anipulation  |                                                 |
\*---------------------------------------------------------------------------*/
FoamFile
{
    version     2.0;
    format      ascii;
    arch        "LSB;label=32;scalar=64";
    class       surfaceScalarField;
    location    "0.31";
    object      phi;
}
// * * * * * * * * * * * * * * * * * * * * * * * * * * * * * * * * * * * * * //

dimensions      [0 3 -1 0 0 0 0];

oriented        oriented;

internalField   nonuniform List<scalar> 
29100
(
0.00116664
0.148016
0.0803279
-3.60738e-10
0.00143654
0.152786
0.0882759
0.00123274
0.156124
0.0949159
0.00070206
0.158346
0.0996685
-1.95181e-09
0.15946
0.102144
-0.000702064
0.15946
0.102144
-0.00123274
0.158346
0.0996685
-0.00143654
0.156124
0.0949159
-0.00116665
0.152786
0.0882759
0.148016
0.0803279
-6.50397e-09
0.00232845
0.20426
0.154322
-8.23601e-10
0.00323449
0.208665
0.167745
0.00288453
0.211597
0.17872
0.00166849
0.213418
0.186482
-5.46837e-09
0.214309
0.190493
-0.0016685
0.214309
0.190493
-0.00288454
0.213418
0.186482
-0.0032345
0.211597
0.17872
-0.00232847
0.208665
0.167745
0.20426
0.154322
-1.61243e-08
0.00295912
0.214298
0.183283
-1.10511e-09
0.00418481
0.216987
0.19818
0.00375548
0.218706
0.210171
0.00217466
0.219617
0.218575
-8.96427e-09
0.220034
0.222893
-0.00217468
0.220034
0.222893
-0.0037555
0.219617
0.218575
-0.00418483
0.218706
0.210171
-0.00295914
0.216987
0.19818
0.214298
0.183283
-2.44005e-08
0.00336424
0.20039
0.190207
-1.35663e-09
0.00469138
0.201375
0.205212
0.00420027
0.201919
0.217136
0.00242752
0.202006
0.225432
-1.26013e-08
0.201999
0.229676
-0.00242754
0.201999
0.229676
-0.0042003
0.202006
0.225432
-0.00469141
0.201919
0.217136
-0.00336427
0.201375
0.205212
0.20039
0.190207
-3.15161e-08
0.00356851
0.175172
0.184698
-1.6348e-09
0.00490668
0.174857
0.199305
0.00437979
0.174522
0.21079
0.00252748
0.174031
0.218731
-1.67744e-08
0.173732
0.22278
-0.00252752
0.173732
0.22278
-0.00437983
0.174031
0.218731
-0.00490671
0.174522
0.21079
-0.00356854
0.174857
0.199305
0.175172
0.184698
-3.79501e-08
0.00362764
0.145895
0.172082
-2.0259e-09
0.00493601
0.144738
0.186134
0.0043953
0.143846
0.197089
0.00253446
0.143028
0.204621
-2.18843e-08
0.142571
0.208451
-0.0025345
0.142571
0.208451
-0.00439534
0.143028
0.204621
-0.00493606
0.143846
0.197089
-0.00362769
0.144738
0.186134
0.145894
0.172082
-4.3924e-08
0.00360936
0.116604
0.155498
-2.58485e-09
0.00487369
0.114999
0.168996
0.00433164
0.113821
0.179447
0.00249709
0.112879
0.186595
-2.82767e-08
0.112374
0.190221
-0.00249714
0.112374
0.190221
-0.0043317
0.112879
0.186595
-0.00487375
0.113821
0.179447
-0.00360942
0.114999
0.168996
0.116604
0.155498
-4.96085e-08
0.00354855
0.0894638
0.136793
-3.22582e-09
0.00478224
0.087687
0.149799
0.00424914
0.086433
0.159809
0.00245033
0.0855209
0.166624
-3.59948e-08
0.0850502
0.170072
-0.0024504
0.0850502
0.170072
-0.00424921
0.0855209
0.166624
-0.0047823
0.086433
0.159809
-0.0035486
0.087687
0.149799
0.0894638
0.136793
-5.50677e-08
0.00348905
0.0655199
0.117041
-3.9935e-09
0.0047259
0.0637437
0.129625
0.00420047
0.0625908
0.139263
0.00242148
0.061827
0.145795
-4.47155e-08
0.0614483
0.149092
-0.00242157
0.0614483
0.149092
-0.00420055
0.061827
0.145795
-0.00472597
0.0625908
0.139263
-0.00348912
0.0637436
0.129625
0.0655199
0.117041
-6.00414e-08
0.00367843
0.0968564
-5.38021e-09
0.0449553
0.00487728
0.109087
0.0435755
0.00428005
0.118406
0.0426845
0.00244786
0.124696
0.0421399
-5.36856e-08
0.127864
0.0418722
-0.00244796
0.127864
0.0418722
-0.00428015
0.124696
0.0421399
-0.00487736
0.118406
0.0426845
-0.0036785
0.109087
0.0435755
0.0968564
-6.38861e-08
0.0449553
-0.000238319
0.0355117
0.0450545
-4.70338e-10
-0.000240238
0.0385869
0.0496909
-0.000169283
0.0411867
0.0536583
-8.44159e-05
0.0430441
0.0565395
-3.01515e-09
0.0440048
0.0580544
8.44098e-05
0.0440048
0.0580544
0.000169276
0.0430441
0.0565395
0.00024023
0.0411867
0.0536583
0.00023831
0.0385869
0.0496909
0.0355117
0.0450545
-9.48497e-09
4.92142e-05
0.077806
0.111979
-1.08579e-09
0.000228609
0.0833322
0.12282
0.000278888
0.087928
0.131929
0.000188317
0.0911433
0.138473
-9.46896e-09
0.0927936
0.141892
-0.000188336
0.0927936
0.141892
-0.000278909
0.0911433
0.138473
-0.000228631
0.087928
0.131929
-4.92378e-05
0.0833322
0.12282
0.077806
0.111979
-2.53978e-08
0.000568095
0.107291
0.15323
-1.69096e-09
0.000962974
0.113577
0.16754
0.000945217
0.118734
0.179383
0.000578613
0.122267
0.187817
-1.56469e-08
0.124066
0.1922
-0.000578644
0.124066
0.1922
-0.00094525
0.122267
0.187817
-0.000963009
0.118734
0.179383
-0.000568132
0.113577
0.16754
0.107291
0.15323
-3.91138e-08
0.00114627
0.122036
0.174316
-2.2925e-09
0.0017473
0.127886
0.190303
0.00164535
0.132619
0.203353
0.000983034
0.135789
0.212573
-2.23974e-08
0.137385
0.217341
-0.000983079
0.137385
0.217341
-0.0016454
0.135789
0.212573
-0.00174735
0.132619
0.203353
-0.00114632
0.127886
0.190303
0.122036
0.174316
-5.08283e-08
0.00170303
0.124021
0.18101
-2.97331e-09
0.00247923
0.128804
0.19761
0.00229015
0.132608
0.210991
0.00135238
0.135085
0.220372
-2.99396e-08
0.136315
0.225202
-0.00135244
0.136315
0.225202
-0.00229021
0.135085
0.220372
-0.00247929
0.132608
0.210991
-0.00170309
0.128804
0.19761
0.124021
0.18101
-6.09013e-08
0.00219678
0.116403
0.177504
-3.80582e-09
0.00311582
0.11991
0.194109
0.00284602
0.122624
0.207342
0.00166941
0.12433
0.216553
-3.85892e-08
0.12516
0.221275
-0.00166949
0.12516
0.221275
-0.0028461
0.12433
0.216553
-0.00311589
0.122624
0.207342
-0.00219686
0.11991
0.194109
0.116403
0.177504
-6.95439e-08
0.00260722
0.102427
0.166867
-4.96588e-09
0.00364446
0.104708
0.183161
0.00330806
0.106395
0.196013
0.0019333
0.107403
0.204897
-4.84557e-08
0.107881
0.209434
-0.0019334
0.107881
0.209434
-0.00330816
0.107403
0.204897
-0.00364455
0.106395
0.196012
-0.0026073
0.104708
0.183161
0.102427
0.166867
-7.67732e-08
0.00293091
0.0849485
0.151341
-6.47332e-09
0.00407794
0.0861743
0.167186
0.00369316
0.0870181
0.179571
0.00215485
0.087488
0.188078
-5.91362e-08
0.0877026
0.192406
-0.00215496
0.0877026
0.192406
-0.00369326
0.087488
0.188078
-0.00407804
0.0870182
0.179571
-0.00293099
0.0861743
0.167186
0.0849485
0.151341
-8.24349e-08
0.00320412
0.0662423
0.132543
-8.56486e-09
0.00446795
0.0666265
0.147909
0.00404218
0.0668842
0.159823
0.00235492
0.0670141
0.167956
-6.96425e-08
0.0670707
0.172079
-0.00235506
0.0670707
0.172079
-0.00404231
0.0670141
0.167956
-0.00446806
0.0668842
0.159822
-0.00320422
0.0666265
0.147909
0.0662423
0.132543
-8.55553e-08
0.00358147
0.111618
-1.08309e-08
0.0478996
0.00494623
0.126541
0.0478071
0.00443682
0.138015
0.0477848
0.00256924
0.145802
0.0477756
-7.7926e-08
0.149736
0.0477674
-0.00256939
0.149736
0.0477674
-0.00443695
0.145802
0.0477756
-0.00494635
0.138015
0.0477848
-0.00358157
0.126541
0.047807
0.111618
-8.53418e-08
0.0478996
4.02679e-05
0.00934915
0.0356651
-4.32343e-10
3.6592e-05
0.0103164
0.0393783
3.03697e-05
0.0111384
0.0425262
1.67156e-05
0.0117486
0.0448045
-2.8585e-09
0.0120702
0.0460009
-1.67217e-05
0.0120702
0.0460009
-3.03762e-05
0.0117486
0.0448045
-3.65995e-05
0.0111384
0.0425262
-4.02764e-05
0.0103164
0.0393783
0.00934915
0.0356651
-9.33813e-09
0.000269602
0.0281911
0.0928673
-1.04144e-09
0.000364339
0.0306908
0.102351
0.000324322
0.0327838
0.110323
0.000188769
0.0342915
0.116066
-9.02971e-09
0.035079
0.119072
-0.000188788
0.035079
0.119072
-0.000324342
0.0342916
0.116066
-0.000364361
0.0327838
0.110323
-0.000269625
0.0306909
0.102351
0.0281911
0.0928673
-2.53134e-08
0.000564723
0.0473064
0.13355
-1.63667e-09
0.000798286
0.0509363
0.147061
0.000721278
0.0539321
0.158312
0.000422103
0.0560399
0.166368
-1.57333e-08
0.0571305
0.17057
-0.000422135
0.0571305
0.17057
-0.000721312
0.0560399
0.166368
-0.000798322
0.0539322
0.158312
-0.00056476
0.0509363
0.147061
0.0473064
0.13355
-3.92809e-08
0.00089708
0.0614037
0.159322
-2.32646e-09
0.00128326
0.0654725
0.17538
0.0011694
0.0687861
0.188613
0.000685813
0.0710683
0.198028
-2.28732e-08
0.0722374
0.20292
-0.000685859
0.0722374
0.20292
-0.00116945
0.0710683
0.198028
-0.00128331
0.0687861
0.188613
-0.00089713
0.0654725
0.17538
0.0614037
0.159322
-5.11695e-08
0.00124303
0.0687801
0.17239
-3.20468e-09
0.00177488
0.072681
0.189869
0.00162154
0.0758117
0.204119
0.000951221
0.0779219
0.214189
-3.06435e-08
0.0789908
0.2194
-0.000951283
0.0789908
0.2194
-0.0016216
0.0779219
0.214189
-0.00177494
0.0758117
0.204119
-0.00124309
0.0726811
0.189869
0.0687801
0.17239
-6.10508e-08
0.0015842
0.0696327
0.175067
-4.29095e-09
0.00224632
0.0729621
0.193166
0.00205118
0.0755834
0.207766
0.00120253
0.0773095
0.218014
-3.91924e-08
0.0781727
0.223296
-0.00120261
0.0781727
0.223296
-0.00205126
0.0773095
0.218014
-0.0022464
0.0755834
0.207766
-0.00158427
0.0729621
0.193166
0.0696327
0.175067
-6.8862e-08
0.00190015
0.0651076
0.169491
-5.73669e-09
0.00267732
0.0676646
0.187681
0.00244218
0.0696252
0.202206
0.00143091
0.070884
0.212334
-4.84095e-08
0.0715049
0.217532
-0.00143101
0.0715049
0.217532
-0.00244227
0.070884
0.212334
-0.0026774
0.0696252
0.202206
-0.00190023
0.0676646
0.187681
0.0651076
0.169491
-7.44385e-08
0.00217737
0.0567364
0.157535
-7.64211e-09
0.00306126
0.0584735
0.175494
0.0027914
0.0597663
0.1897
0.00163494
0.0605775
0.199541
-5.76111e-08
0.060973
0.204573
-0.00163505
0.060973
0.204573
-0.00279151
0.0605775
0.199541
-0.00306136
0.0597663
0.1897
-0.00217745
0.0584735
0.175493
0.0567365
0.157535
-7.75079e-08
0.00242885
0.0460854
0.140765
-1.00434e-08
0.00341652
0.0470659
0.158329
0.00311169
0.0477925
0.172101
0.0018203
0.0482461
0.181579
-6.55121e-08
0.0484669
0.186405
-0.00182043
0.0484669
0.186405
-0.0031118
0.0482461
0.181579
-0.00341663
0.0477925
0.172101
-0.00242893
0.0470659
0.158329
0.0460854
0.140765
-7.72872e-08
0.00272116
0.120459
-1.27932e-08
0.0345233
0.00379428
0.137591
0.0349434
0.00343395
0.150885
0.0352828
0.00199991
0.159972
0.0355102
-7.0113e-08
0.164582
0.0356214
-0.00200005
0.164582
0.0356214
-0.00343408
0.159972
0.0355102
-0.00379438
0.150885
0.0352828
-0.00272125
0.137591
0.0349434
0.120459
-7.30803e-08
0.0345233
-3.11823e-05
0.00370222
0.031994
-3.75486e-10
-4.44938e-05
0.00407543
0.0353161
-3.62553e-05
0.00439267
0.0381253
-2.01056e-05
0.00462832
0.04016
-2.4186e-09
0.00475165
0.0412292
2.01006e-05
0.00475165
0.0412292
3.62498e-05
0.00462832
0.04016
4.44872e-05
0.00439267
0.0381253
3.11751e-05
0.00407543
0.0353161
0.00370222
0.031994
-7.96279e-09
3.10496e-06
0.0113526
0.0852138
-9.52851e-10
6.75169e-06
0.0124298
0.0939927
1.07744e-05
0.0133441
0.101368
8.76176e-06
0.0140087
0.106688
-7.91498e-09
0.0143571
0.109475
-8.77792e-06
0.0143571
0.109475
-1.0792e-05
0.0140087
0.106688
-6.76885e-06
0.0133441
0.101368
-3.12504e-06
0.0124298
0.0939927
0.0113526
0.0852138
-2.17233e-08
9.9958e-05
0.0200116
0.124791
-1.57707e-09
0.000151713
0.0217704
0.137669
0.000146088
0.0232518
0.148409
8.92197e-05
0.0243125
0.156121
-1.36723e-08
0.0248657
0.160151
-8.92474e-05
0.0248657
0.160151
-0.000146117
0.0243125
0.156121
-0.000151744
0.0232518
0.148409
-9.99899e-05
0.0217704
0.137669
0.0200116
0.124791
-3.36979e-08
0.000246191
0.0274867
0.1516
-2.28734e-09
0.000366598
0.0296862
0.167344
0.000345482
0.0315191
0.180367
0.000207165
0.0328111
0.189668
-1.98067e-08
0.0334803
0.194512
-0.000207205
0.0334803
0.194512
-0.000345523
0.0328111
0.189668
-0.00036664
0.0315191
0.180367
-0.000246233
0.0296862
0.167344
0.0274867
0.1516
-4.38157e-08
0.000426325
0.0324785
0.166972
-3.1622e-09
0.000625141
0.034811
0.184546
0.000584038
0.0367275
0.198951
0.000347694
0.0380564
0.20918
-2.63406e-08
0.0387389
0.214489
-0.000347747
0.0387389
0.214489
-0.000584091
0.0380564
0.20918
-0.000625194
0.0367276
0.198951
-0.000426377
0.034811
0.184546
0.0324785
0.166972
-5.20084e-08
0.000625627
0.0344925
0.172427
-4.26984e-09
0.000905483
0.0366835
0.191014
0.000840975
0.0384505
0.206107
0.000498556
0.0396538
0.216759
-3.32535e-08
0.040266
0.222267
-0.000498622
0.040266
0.222267
-0.000841039
0.0396538
0.216759
-0.000905545
0.0384505
0.206107
-0.000625686
0.0366835
0.191014
0.0344925
0.172427
-5.81529e-08
0.000828861
0.0336305
0.169525
-5.71999e-09
0.00118886
0.0354842
0.18852
0.00109987
0.0369434
0.203802
0.000650329
0.0379186
0.214518
-4.03114e-08
0.0384097
0.220039
-0.000650408
0.0384098
0.220039
-0.00109995
0.0379186
0.214518
-0.00118893
0.0369434
0.203802
-0.000828925
0.0354842
0.18852
0.0336306
0.169525
-6.20692e-08
0.00102507
0.0303807
0.15976
-7.5622e-09
0.0014648
0.0317879
0.17875
0.00135193
0.0328671
0.193889
0.00079786
0.0335762
0.204437
-4.6829e-08
0.0339303
0.20985
-0.000797951
0.0339303
0.20985
-0.00135202
0.0335763
0.204437
-0.00146487
0.0328671
0.193889
-0.00102514
0.0317879
0.17875
0.0303808
0.15976
-6.34696e-08
0.00121914
0.025432
0.144495
-9.82167e-09
0.00173818
0.0263676
0.163231
0.00159869
0.027075
0.178033
0.000940928
0.0275361
0.188277
-5.16852e-08
0.0277653
0.193511
-0.000941028
0.0277653
0.193511
-0.00159878
0.0275361
0.188277
-0.00173826
0.027075
0.178033
-0.0012192
0.0263676
0.163231
0.025432
0.144495
-6.17371e-08
0.00143414
0.124929
-1.2209e-08
0.0195275
0.00202707
0.143318
0.0200474
0.0018519
0.157679
0.0204563
0.00108466
0.167545
0.0207309
-5.32251e-08
0.172564
0.0208676
-0.00108477
0.172564
0.0208676
-0.00185199
0.167545
0.0207309
-0.00202715
0.157679
0.0204563
-0.0014342
0.143318
0.0200474
0.124929
-5.63229e-08
0.0195275
2.8145e-06
0.00111525
0.030876
-2.93373e-10
6.55906e-07
0.00123996
0.0340783
5.80914e-07
0.00134924
0.0367761
3.11067e-07
0.00143272
0.0387276
-1.94135e-09
0.00147735
0.0397521
-3.14664e-07
0.00147735
0.0397521
-5.85274e-07
0.00143272
0.0387276
-6.60979e-07
0.00134924
0.0367761
-2.82012e-06
0.00123996
0.0340783
0.00111525
0.030876
-6.22767e-09
2.76621e-05
0.00401103
0.0822904
-7.58229e-10
3.48082e-05
0.00442699
0.0907985
3.14019e-05
0.00478587
0.0979348
1.84076e-05
0.00505239
0.103081
-6.4812e-09
0.00519369
0.105777
-1.8421e-05
0.00519369
0.105777
-3.14158e-05
0.0050524
0.103081
-3.48233e-05
0.00478587
0.0979348
-2.7678e-05
0.00442699
0.0907985
0.00401103
0.0822904
-1.70651e-08
7.35121e-05
0.00771238
0.121016
-1.33293e-09
0.000102769
0.00845757
0.133609
9.40054e-05
0.00909363
0.14411
5.55111e-05
0.00955706
0.151655
-1.10547e-08
0.00980121
0.155599
-5.55335e-05
0.00980121
0.155599
-9.40286e-05
0.00955706
0.151655
-0.000102794
0.00909364
0.14411
-7.35373e-05
0.00845757
0.133609
0.00771238
0.121016
-2.65721e-08
0.000140124
0.0112655
0.147907
-1.98448e-09
0.000201804
0.0122716
0.163469
0.000186433
0.013121
0.176355
0.000110377
0.01373
0.185571
-1.58093e-08
0.0140486
0.190375
-0.000110409
0.0140486
0.190375
-0.000186465
0.01373
0.185571
-0.000201838
0.013121
0.176355
-0.000140157
0.0122716
0.163469
0.0112655
0.147907
-3.45728e-08
0.000224739
0.0139775
0.164036
-2.76163e-09
0.000325673
0.0151183
0.181598
0.000301945
0.016069
0.196027
0.000178872
0.0167401
0.206293
-2.07235e-08
0.0170884
0.211628
-0.000178913
0.0170884
0.211628
-0.000301987
0.0167401
0.206293
-0.000325714
0.016069
0.196027
-0.000224779
0.0151183
0.181598
0.0139775
0.164036
-4.10059e-08
0.000322656
0.0154581
0.170624
-3.68754e-09
0.000466566
0.016596
0.189392
0.000432734
0.0175289
0.204681
0.000256256
0.0181768
0.215499
-2.57445e-08
0.0185102
0.221102
-0.000256307
0.0185102
0.221102
-0.000432784
0.0181768
0.215499
-0.000466614
0.0175289
0.204681
-0.000322701
0.016596
0.189392
0.0154581
0.170624
-4.57632e-08
0.000427599
0.0155977
0.168957
-4.84569e-09
0.000616026
0.0166153
0.188313
0.000570964
0.0174329
0.203943
0.000337878
0.0179914
0.214937
-3.06636e-08
0.0182762
0.220611
-0.000337938
0.0182762
0.220611
-0.000571022
0.0179914
0.214937
-0.00061608
0.0174329
0.203943
-0.000427648
0.0166153
0.188313
0.0155977
0.168957
-4.86882e-08
0.000534076
0.0145094
0.160314
-6.30964e-09
0.000767771
0.0153263
0.179805
0.00071078
0.0159685
0.19541
0.000420159
0.0164003
0.206319
-3.49811e-08
0.0166185
0.211928
-0.000420227
0.0166185
0.211928
-0.000710845
0.0164003
0.206319
-0.000767829
0.0159685
0.19541
-0.000534127
0.0153263
0.179805
0.0145094
0.160314
-4.95567e-08
0.000642477
0.0124578
0.145904
-8.03781e-09
0.000920528
0.0130383
0.16524
0.000849346
0.0134866
0.180586
0.000500877
0.0137845
0.191241
-3.79403e-08
0.0139341
0.196697
-0.000500951
0.0139341
0.196697
-0.000849415
0.0137845
0.191241
-0.000920588
0.0134866
0.180586
-0.000642527
0.0130383
0.16524
0.0124578
0.145904
-4.79591e-08
0.000753546
0.126841
-9.73947e-09
0.00979263
0.00107197
0.145897
0.0101412
0.000984536
0.160838
0.0104143
0.000578615
0.171136
0.0105993
-3.84856e-08
0.176385
0.0106922
-0.00057869
0.176385
0.0106922
-0.000984603
0.171136
0.0105993
-0.00107203
0.160838
0.0104143
-0.000753592
0.145897
0.0101412
0.12684
-4.36761e-08
0.00979264
-5.0821e-06
0.000473459
0.0304076
-2.17961e-10
-7.66488e-06
0.00052058
0.0335603
-6.25963e-06
0.000560478
0.0362142
-3.49496e-06
0.00059067
0.0381342
-1.6192e-09
0.000606555
0.0391421
3.49163e-06
0.000606555
0.0391421
6.25605e-06
0.00059067
0.0381342
7.66097e-06
0.000560479
0.0362142
5.07788e-06
0.000520581
0.0335603
0.00047346
0.0304076
-4.65331e-09
-2.4996e-06
0.00162787
0.0811385
-6.01227e-10
-4.2886e-06
0.00179164
0.0895292
-3.12146e-06
0.00193155
0.0965626
-1.46878e-06
0.00203541
0.101635
-5.08935e-09
0.00209036
0.104292
1.45838e-06
0.00209036
0.104292
3.11052e-06
0.00203541
0.101635
4.27684e-06
0.00193155
0.0965626
2.48696e-06
0.00179164
0.0895292
0.00162787
0.0811385
-1.28807e-08
1.14271e-05
0.00313935
0.119493
-1.05721e-09
1.65669e-05
0.00344802
0.131947
1.6254e-05
0.00371151
0.142331
1.00976e-05
0.00390445
0.149792
-8.58509e-09
0.00400631
0.153693
-1.0115e-05
0.00400631
0.153693
-1.6272e-05
0.00390445
0.149792
-1.65855e-05
0.00371151
0.142331
-1.1446e-05
0.00344803
0.131947
0.00313935
0.119493
-1.99095e-08
3.64304e-05
0.00466912
0.146341
-1.55729e-09
5.38729e-05
0.00510745
0.161792
5.11578e-05
0.00547925
0.17459
3.0869e-05
0.00574804
0.183747
-1.2143e-08
0.00588924
0.188523
-3.08935e-05
0.00588924
0.188523
-5.11826e-05
0.00574804
0.183747
-5.38982e-05
0.00547926
0.17459
-3.64556e-05
0.00510745
0.161792
0.00466913
0.146341
-2.59365e-08
7.15542e-05
0.00592406
0.162709
-2.14047e-09
0.000105519
0.00644567
0.180226
9.94276e-05
0.00688349
0.194629
5.9548e-05
0.0071958
0.204885
-1.57249e-08
0.0073588
0.210218
-5.95795e-05
0.00735881
0.210218
-9.94591e-05
0.00719581
0.204885
-0.00010555
0.0068835
0.194629
-7.15846e-05
0.00644568
0.180226
0.00592407
0.162709
-3.08289e-08
0.000114941
0.0067034
0.16973
-2.83357e-09
0.000168436
0.00724812
0.188536
0.000158044
0.00769872
0.203876
9.43112e-05
0.00801556
0.214743
-1.92884e-08
0.00817968
0.220375
-9.43495e-05
0.00817968
0.220375
-0.000158082
0.00801557
0.214743
-0.000168472
0.00769873
0.203876
-0.000114975
0.00724813
0.188536
0.00670341
0.16973
-3.4505e-08
0.000163988
0.00691337
0.168583
-3.67739e-09
0.000238982
0.00742264
0.188063
0.000223585
0.0078362
0.203821
0.000133108
0.00812263
0.21492
-2.26846e-08
0.00826977
0.220654
-0.000133153
0.00826977
0.220654
-0.000223628
0.00812264
0.21492
-0.000239023
0.00783621
0.203821
-0.000164026
0.00742265
0.188063
0.00691337
0.168583
-3.68815e-08
0.000216359
0.00656059
0.16045
-4.67703e-09
0.000314264
0.00698819
0.180142
0.000293221
0.00732857
0.195939
0.000174173
0.0075608
0.207
-2.55926e-08
0.00767908
0.212693
-0.000174223
0.00767908
0.212693
-0.000293269
0.00756081
0.207
-0.000314308
0.00732857
0.195939
-0.000216397
0.00698819
0.180142
0.00656059
0.16045
-3.77939e-08
0.000272493
0.00573149
0.14646
-5.82245e-09
0.000393633
0.00605129
0.166056
0.000365405
0.00630114
0.181641
0.000216297
0.00646936
0.192482
-2.75502e-08
0.0065544
0.198038
-0.000216351
0.0065544
0.198038
-0.000365455
0.00646937
0.192482
-0.000393678
0.00630114
0.181641
-0.000272531
0.0060513
0.166056
0.00573149
0.14646
-3.70121e-08
0.000331554
0.127671
-6.93788e-09
0.00456958
0.000475151
0.147031
0.00477357
0.000438827
0.162242
0.00493429
0.000258771
0.172741
0.00504386
-2.79503e-08
0.178099
0.00509917
-0.000258826
0.178099
0.00509917
-0.000438877
0.172741
0.00504386
-0.000475194
0.162241
0.00493429
-0.00033159
0.147031
0.00477357
0.127671
-3.44135e-08
0.00456959
-4.0557e-07
0.000138863
0.0302691
-1.5701e-10
-1.0542e-06
0.00015413
0.0334069
-8.10109e-07
0.000167544
0.0360464
-4.51479e-07
0.0001781
0.0379557
-1.28931e-09
0.00018375
0.0389579
4.48838e-07
0.00018375
0.0389579
8.07359e-07
0.000178101
0.0379557
1.05121e-06
0.000167544
0.0360464
4.02371e-07
0.00015413
0.0334069
0.000138863
0.0302691
-3.27008e-09
1.66978e-06
0.000549595
0.0807261
-4.43425e-10
1.6153e-06
0.000608849
0.0890745
1.568e-06
0.000660474
0.0960697
9.74607e-07
0.000699555
0.101114
-3.96914e-09
0.000720433
0.103757
-9.82673e-07
0.000720433
0.103757
-1.57631e-06
0.000699556
0.101114
-1.62385e-06
0.000660475
0.0960697
-1.67843e-06
0.00060885
0.0890745
0.000549596
0.0807261
-9.06013e-09
7.6162e-06
0.00113199
0.118903
-7.80785e-10
1.03497e-05
0.00125046
0.131303
9.61967e-06
0.00135294
0.141639
5.75986e-06
0.00142906
0.149066
-6.60289e-09
0.00146956
0.15295
-5.7732e-06
0.00146956
0.15295
-9.63327e-06
0.00142906
0.149066
-1.03636e-05
0.00135294
0.141639
-7.63009e-06
0.00125046
0.131303
0.00113199
0.118903
-1.42331e-08
1.79195e-05
0.00175581
0.145699
-1.14746e-09
2.57201e-05
0.00193173
0.161103
2.39985e-05
0.00208268
0.173862
1.43203e-05
0.00219322
0.182993
-9.22923e-09
0.0022517
0.187755
-1.43388e-05
0.0022517
0.187755
-2.40172e-05
0.00219322
0.182993
-2.57389e-05
0.00208269
0.173862
-1.79379e-05
0.00193174
0.161103
0.00175582
0.145699
-1.86918e-08
3.26243e-05
0.00229961
0.162133
-1.56018e-09
4.74993e-05
0.00251709
0.179626
4.4428e-05
0.00270173
0.194013
2.64869e-05
0.00283511
0.204261
-1.18058e-08
0.00290522
0.209591
-2.65105e-05
0.00290522
0.209591
-4.44515e-05
0.00283511
0.204261
-4.75225e-05
0.00270173
0.194013
-3.26466e-05
0.00251709
0.179626
0.00229961
0.162133
-2.23636e-08
5.12846e-05
0.0026706
0.169307
-2.02661e-09
7.48389e-05
0.00290553
0.188124
7.00336e-05
0.00310226
0.203481
4.1721e-05
0.00324238
0.214364
-1.43096e-08
0.00331549
0.220006
-4.17495e-05
0.00331549
0.220006
-7.00615e-05
0.00324239
0.214364
-7.48659e-05
0.00310226
0.203481
-5.131e-05
0.00290554
0.188124
0.00267061
0.169307
-2.52027e-08
7.29964e-05
0.00281561
0.168365
-2.57455e-09
0.000106402
0.00304213
0.187893
9.95178e-05
0.00322858
0.203701
5.92303e-05
0.00335944
0.214843
-1.6654e-08
0.00342715
0.220601
-5.92632e-05
0.00342715
0.220601
-9.95497e-05
0.00335944
0.214843
-0.000106432
0.00322858
0.203701
-7.30241e-05
0.00304214
0.187893
0.00281561
0.168365
-2.71731e-08
9.68049e-05
0.00272332
0.160446
-3.22331e-09
0.00014088
0.00291928
0.180221
0.000131545
0.00307749
0.196099
7.81674e-05
0.00318682
0.207226
-1.86662e-08
0.00324288
0.212955
-7.82041e-05
0.00324288
0.212955
-0.00013158
0.00318683
0.207226
-0.000140913
0.0030775
0.196099
-9.68338e-05
0.00291929
0.180221
0.00272332
0.160446
-2.81983e-08
0.000122582
0.00241962
0.146642
-3.92577e-09
0.000177415
0.00257097
0.16635
0.000164898
0.00269043
0.182041
9.76924e-05
0.00277167
0.192964
-2.01092e-08
0.00281295
0.198565
-9.77319e-05
0.00281295
0.198565
-0.000164935
0.00277167
0.192964
-0.000177448
0.00269043
0.182041
-0.000122611
0.00257097
0.16635
0.00241962
0.146641
-2.81753e-08
0.000148058
0.127981
-4.52788e-09
0.00196102
0.000213199
0.147476
0.00206035
0.00019759
0.162809
0.00213876
0.000116777
0.173401
0.00219247
-2.06778e-08
0.178809
0.00221971
-0.000116817
0.178809
0.00221971
-0.000197628
0.173401
0.00219247
-0.000213233
0.162809
0.00213876
-0.000148086
0.147476
0.00206035
0.127981
-2.7033e-08
0.00196102
-1.13122e-06
5.82384e-05
0.030212
-1.09319e-10
-1.6512e-06
6.38683e-05
0.0333435
-1.36066e-06
6.86618e-05
0.0359775
-7.61973e-07
7.23693e-05
0.0378827
-1.00373e-09
7.43212e-05
0.0388828
7.59945e-07
7.43213e-05
0.0388828
1.35859e-06
7.23694e-05
0.0378827
1.64906e-06
6.8662e-05
0.0359775
1.12905e-06
6.38685e-05
0.0333435
5.82385e-05
0.030212
-2.21191e-09
-1.49923e-06
0.000214466
0.0805714
-3.14978e-10
-2.28746e-06
0.000236588
0.0889026
-1.92531e-06
0.000255682
0.0958823
-1.06423e-06
0.000270119
0.100915
-3.0517e-09
0.000277797
0.103552
1.05809e-06
0.000277798
0.103552
1.91911e-06
0.000270119
0.100915
2.28118e-06
0.000255683
0.0958823
1.49299e-06
0.000236589
0.0889026
0.000214466
0.0805714
-6.23824e-09
1.34373e-07
0.000436716
0.11868
-5.46944e-10
2.5265e-08
0.000482403
0.131057
1.55857e-07
0.00052179
0.141373
1.8053e-07
0.000551093
0.148785
-5.00049e-09
0.0005667
0.152661
-1.90541e-07
0.000566701
0.152661
-1.66092e-07
0.000551094
0.148785
-3.53743e-08
0.000521791
0.141373
-1.44231e-07
0.000482404
0.131057
0.000436718
0.11868
-9.85662e-09
3.59388e-06
0.000682038
0.14545
-7.92984e-10
5.24096e-06
0.000752005
0.160831
5.0727e-06
0.000812065
0.173572
3.10883e-06
0.00085623
0.18269
-6.91868e-09
0.000879653
0.187445
-3.12267e-06
0.000879653
0.187445
-5.08648e-06
0.000856231
0.18269
-5.25459e-06
0.000812066
0.173572
-3.60699e-06
0.000752007
0.160831
0.00068204
0.14545
-1.3029e-08
9.12956e-06
0.000904551
0.161901
-1.06156e-09
1.34544e-05
0.000993683
0.17938
1.27769e-05
0.00106953
0.193756
7.69982e-06
0.00112464
0.203998
-8.75482e-09
0.00115369
0.209325
-7.71727e-06
0.00115369
0.209325
-1.27942e-05
0.00112464
0.203998
-1.34712e-05
0.00106954
0.193756
-9.14551e-06
0.000993686
0.17938
0.000904554
0.161901
-1.57147e-08
1.65184e-05
0.00106551
0.16913
-1.36224e-09
2.43315e-05
0.0011646
0.187946
2.29839e-05
0.00124787
0.203304
1.37797e-05
0.00130757
0.21419
-1.05067e-08
0.00133884
0.219835
-1.38005e-05
0.00133884
0.219835
-2.30043e-05
0.00130757
0.21419
-2.43511e-05
0.00124787
0.203304
-1.65367e-05
0.0011646
0.187946
0.00106551
0.16913
-1.78674e-08
2.5437e-05
0.00113942
0.168266
-1.69991e-09
3.73833e-05
0.00123764
0.187808
3.52146e-05
0.00131886
0.203633
2.10549e-05
0.00137626
0.214789
-1.21354e-08
0.00140609
0.220555
-2.10789e-05
0.00140609
0.220555
-3.52378e-05
0.00137626
0.214789
-3.74052e-05
0.00131886
0.203633
-2.5457e-05
0.00123764
0.187808
0.00113943
0.168266
-1.94818e-08
3.55489e-05
0.00111682
0.160433
-2.07953e-09
5.21227e-05
0.00120412
0.180238
4.89504e-05
0.00127502
0.196146
2.91902e-05
0.00132436
0.207298
-1.35584e-08
0.00134976
0.213041
-2.92169e-05
0.00134976
0.213041
-4.8976e-05
0.00132436
0.207298
-5.21464e-05
0.00127502
0.196146
-3.55702e-05
0.00120412
0.180238
0.00111682
0.160433
-2.0528e-08
4.6897e-05
0.00100389
0.146708
-2.44634e-09
6.82642e-05
0.00107327
0.166459
6.3722e-05
0.00112838
0.182192
3.78504e-05
0.0011661
0.193148
-1.46653e-08
0.00118533
0.198768
-3.78792e-05
0.00118533
0.198768
-6.37493e-05
0.0011661
0.193148
-6.82891e-05
0.00112838
0.182192
-4.69189e-05
0.00107327
0.166459
0.00100389
0.146707
-2.09475e-08
5.85093e-05
0.128106
-2.78517e-09
0.000821056
8.46674e-05
0.147655
0.00086807
7.87717e-05
0.163038
0.000905363
4.66614e-05
0.173668
0.000931013
-1.53142e-08
0.179097
0.000944056
-4.66914e-05
0.179097
0.000944056
-7.87999e-05
0.173668
0.000931014
-8.46928e-05
0.163038
0.000905363
-5.85312e-05
0.147655
0.00086807
0.128106
-2.07198e-08
0.000821055
-2.31897e-07
1.42022e-05
0.0301981
-7.1134e-11
-3.89244e-07
1.57879e-05
0.0333279
-3.21827e-07
1.72389e-05
0.0359602
-1.8256e-07
1.84294e-05
0.0378642
-7.53271e-10
1.90723e-05
0.0388636
1.8105e-07
1.90724e-05
0.0388636
3.20319e-07
1.84295e-05
0.0378642
3.87729e-07
1.7239e-05
0.0359602
2.30421e-07
1.5788e-05
0.0333279
1.42023e-05
0.0301981
-1.45627e-09
-2.66199e-07
6.43971e-05
0.0805214
-2.05732e-10
-5.25523e-07
7.17307e-05
0.0888469
-4.61289e-07
7.82572e-05
0.0958212
-2.61118e-07
8.3319e-05
0.10085
-2.26395e-09
8.60483e-05
0.103485
2.5659e-07
8.60483e-05
0.103485
4.56798e-07
8.33192e-05
0.10085
5.21064e-07
7.82576e-05
0.0958212
2.61825e-07
7.17312e-05
0.0888469
6.43975e-05
0.0805214
-4.16055e-09
3.31257e-07
0.000142702
0.118602
-3.56488e-10
3.09888e-07
0.000158836
0.13097
2.90854e-07
0.000173017
0.141278
1.8394e-07
0.000183761
0.148685
-3.68806e-09
0.000189533
0.152558
-1.91303e-07
0.000189533
0.152558
-2.98145e-07
0.000183762
0.148685
-3.16983e-07
0.000173018
0.141278
-3.37841e-07
0.000158837
0.13097
0.000142703
0.118602
-6.58244e-09
1.66193e-06
0.000233822
0.145357
-5.16157e-10
2.28798e-06
0.000259576
0.16073
2.13427e-06
0.000282004
0.173463
1.27983e-06
0.000298732
0.182576
-5.06492e-09
0.000307669
0.187329
-1.28993e-06
0.000307669
0.187329
-2.14422e-06
0.000298733
0.182576
-2.29766e-06
0.000282005
0.173463
-1.67103e-06
0.000259577
0.16073
0.000233824
0.145357
-8.81225e-09
3.80337e-06
0.000320476
0.161811
-6.85515e-10
5.47495e-06
0.000354329
0.179283
5.12762e-06
0.000383494
0.193655
3.06472e-06
0.000404948
0.203894
-6.36956e-09
0.000416337
0.209219
-3.07739e-06
0.000416337
0.209219
-5.14003e-06
0.000404949
0.203894
-5.4869e-06
0.000383495
0.193655
-3.81453e-06
0.00035433
0.179283
0.000320478
0.161811
-1.07267e-08
6.72864e-06
0.000387024
0.169057
-8.6316e-10
9.81166e-06
0.000425639
0.187871
9.20991e-06
0.000458467
0.203229
5.50062e-06
0.00048228
0.214116
-7.59924e-09
0.000494828
0.219762
-5.5157e-06
0.000494829
0.219762
-9.22458e-06
0.000482281
0.214116
-9.82564e-06
0.000458468
0.203229
-6.74154e-06
0.000425641
0.187871
0.000387025
0.169057
-1.23131e-08
1.03358e-05
0.000422212
0.168221
-1.04928e-09
1.51322e-05
0.000461349
0.187768
1.42134e-05
0.000494081
0.203598
8.48275e-06
0.000517472
0.214759
-8.73523e-09
0.000529694
0.220529
-8.50003e-06
0.000529694
0.220529
-1.42301e-05
0.000517472
0.214759
-1.51479e-05
0.000494082
0.203598
-1.03501e-05
0.000461351
0.187768
0.000422214
0.168221
-1.35832e-08
1.44957e-05
0.00042076
0.16042
-1.25347e-09
2.12294e-05
0.00045628
0.180236
1.99121e-05
0.000485421
0.196156
1.18642e-05
0.000505899
0.207317
-9.73625e-09
0.000516493
0.213066
-1.18834e-05
0.000516494
0.213066
-1.99305e-05
0.0005059
0.207317
-2.12465e-05
0.000485422
0.196156
-1.45111e-05
0.000456282
0.180236
0.000420761
0.16042
-1.45147e-08
1.91635e-05
0.0003837
0.146725
-1.4603e-09