/*--------------------------------*- C++ -*----------------------------------*\
| =========                 |                                                 |
| \\      /  F ield         | OpenFOAM: The Open Source CFD Toolbox           |
|  \\    /   O peration     | Version:  2106                                  |
|   \\  /    A nd           | Website:  www.openfoam.com                      |
|    \\/     M anipulation  |                                                 |
\*---------------------------------------------------------------------------*/
FoamFile
{
    version     2.0;
    format      ascii;
    arch        "LSB;label=32;scalar=64";
    class       surfaceScalarField;
    location    "0.32";
    object      phi;
}
// * * * * * * * * * * * * * * * * * * * * * * * * * * * * * * * * * * * * * //

dimensions      [0 3 -1 0 0 0 0];

oriented        oriented;

internalField   nonuniform List<scalar> 
29100
(
0.0011694
0.148433
0.0804773
-3.19928e-10
0.00143982
0.153219
0.0884401
0.00123555
0.15657
0.0950924
0.000703659
0.1588
0.0998537
-1.94075e-09
0.159919
0.102333
-0.000703663
0.159919
0.102333
-0.00123556
0.1588
0.0998537
-0.00143983
0.15657
0.0950924
-0.0011694
0.153219
0.0884401
0.148433
0.0804773
-6.28764e-09
0.00233473
0.204907
0.154614
-8.01114e-10
0.00324318
0.209335
0.168062
0.0028923
0.212285
0.179059
0.001673
0.214118
0.186835
-5.51723e-09
0.215015
0.190854
-0.00167301
0.215015
0.190854
-0.00289232
0.214118
0.186835
-0.0032432
0.212285
0.179059
-0.00233474
0.209335
0.168062
0.204907
0.154614
-1.57329e-08
0.00296825
0.215066
0.183639
-1.08163e-09
0.00419777
0.217782
0.198567
0.00376719
0.219522
0.210583
0.00218148
0.220447
0.219004
-9.04115e-09
0.22087
0.223331
-0.0021815
0.22087
0.223331
-0.00376721
0.220447
0.219004
-0.00419779
0.219522
0.210583
-0.00296827
0.217782
0.198567
0.215066
0.183639
-2.38903e-08
0.00337617
0.201207
0.190593
-1.33068e-09
0.0047082
0.202218
0.205633
0.0042155
0.202784
0.217584
0.0024364
0.202885
0.225899
-1.27162e-08
0.202885
0.230154
-0.00243642
0.202885
0.230154
-0.00421553
0.202885
0.225899
-0.00470823
0.202784
0.217584
-0.0033762
0.202218
0.205633
0.201207
0.190593
-3.09244e-08
0.00358306
0.175981
0.185095
-1.61127e-09
0.00492708
0.175692
0.199739
0.0043983
0.175377
0.211255
0.00253828
0.1749
0.219216
-1.69077e-08
0.174608
0.223276
-0.00253832
0.174608
0.223276
-0.00439834
0.1749
0.219216
-0.00492711
0.175377
0.211255
-0.0035831
0.175692
0.199739
0.175981
0.185095
-3.72689e-08
0.00364463
0.146655
0.172477
-1.99862e-09
0.00495977
0.145522
0.186569
0.00441688
0.144648
0.197557
0.00254707
0.143842
0.205112
-2.19861e-08
0.143391
0.208953
-0.00254711
0.143391
0.208953
-0.00441693
0.143842
0.205112
-0.00495981
0.144648
0.197557
-0.00364468
0.145521
0.186569
0.146655
0.172477
-4.3131e-08
0.00362865
0.117285
0.15588
-2.54651e-09
0.00490062
0.115699
0.169421
0.00435614
0.114536
0.179906
0.00251142
0.113603
0.187079
-2.8255e-08
0.113103
0.190717
-0.00251147
0.113103
0.190717
-0.0043562
0.113603
0.187079
-0.00490068
0.114536
0.179906
-0.0036287
0.115699
0.169421
0.117285
0.15588
-4.86701e-08
0.00357002
0.0900432
0.137154
-3.1724e-09
0.00481225
0.0882798
0.150204
0.00427644
0.0870367
0.16025
0.0024663
0.0861317
0.16709
-3.57326e-08
0.0856646
0.170551
-0.00246637
0.0856646
0.170551
-0.00427651
0.0861317
0.16709
-0.00481231
0.0870367
0.16025
-0.00357007
0.0882798
0.150204
0.0900432
0.137154
-5.39494e-08
0.00351276
0.0659852
0.117371
-3.92555e-09
0.00475902
0.064217
0.130001
0.00423053
0.063071
0.139674
0.00243903
0.0623118
0.146232
-4.40905e-08
0.0619353
0.149542
-0.00243912
0.0619353
0.149542
-0.00423061
0.0623118
0.146232
-0.00475909
0.063071
0.139674
-0.00351283
0.064217
0.130001
0.0659851
0.117371
-5.87315e-08
0.003705
0.0971468
-5.19966e-09
0.0453019
0.00491382
0.109423
0.0439262
0.00431296
0.118778
0.0430389
0.00246699
0.125094
0.0424968
-5.25965e-08
0.128274
0.0422304
-0.00246709
0.128274
0.0422304
-0.00431306
0.125094
0.0424968
-0.00491391
0.118778
0.0430388
-0.00370508
0.109423
0.0439261
0.0971468
-6.24179e-08
0.0453019
-0.000238802
0.0356536
0.0450625
-4.67061e-10
-0.000240743
0.0387422
0.0496998
-0.000169611
0.0413532
0.053668
-8.45739e-05
0.0432189
0.0565498
-3.05749e-09
0.0441838
0.0580651
8.45677e-05
0.0441838
0.0580651
0.000169604
0.0432189
0.0565498
0.000240735
0.0413532
0.053668
0.000238793
0.0387422
0.0496998
0.0356536
0.0450625
-9.28445e-09
5.08137e-05
0.0781794
0.112037
-1.04678e-09
0.000231269
0.0837377
0.122886
0.000281479
0.0883601
0.132002
0.000189897
0.0915945
0.138551
-9.59193e-09
0.0932547
0.141973
-0.000189916
0.0932547
0.141973
-0.0002815
0.0915945
0.138551
-0.000231291
0.0883601
0.132002
-5.08371e-05
0.0837377
0.122886
0.0781794
0.112037
-2.51052e-08
0.000573291
0.107891
0.153354
-1.65788e-09
0.000970842
0.114224
0.167683
0.00095257
0.11942
0.179541
0.000582998
0.122981
0.187987
-1.59229e-08
0.124794
0.192375
-0.00058303
0.124794
0.192375
-0.000952604
0.122981
0.187987
-0.000970878
0.11942
0.179541
-0.000573328
0.114224
0.167683
0.107891
0.153354
-3.88099e-08
0.00115603
0.122814
0.174514
-2.27727e-09
0.00176171
0.128721
0.190531
0.00165871
0.1335
0.203607
0.000990949
0.136703
0.212845
-2.28111e-08
0.138315
0.217623
-0.000990995
0.138315
0.217623
-0.00165876
0.136703
0.212845
-0.00176176
0.1335
0.203607
-0.00115608
0.128721
0.190531
0.122814
0.174514
-5.05466e-08
0.00171796
0.12491
0.181281
-2.97092e-09
0.00250095
0.129754
0.197923
0.00231022
0.133605
0.211341
0.00136424
0.136116
0.220749
-3.0465e-08
0.137363
0.225594
-0.00136431
0.137363
0.225594
-0.00231028
0.136116
0.220749
-0.00250101
0.133605
0.211341
-0.00171802
0.129754
0.197923
0.12491
0.181281
-6.06445e-08
0.00221719
0.11733
0.17784
-3.81138e-09
0.0031452
0.120894
0.1945
0.00287312
0.123653
0.20778
0.0016854
0.12539
0.217025
-3.91579e-08
0.126236
0.221765
-0.00168548
0.126236
0.221765
-0.00287319
0.12539
0.217025
-0.00314528
0.123653
0.20778
-0.00221726
0.120894
0.1945
0.11733
0.17784
-6.92847e-08
0.00263311
0.103324
0.167254
-4.95725e-09
0.00368149
0.105653
0.183613
0.00334215
0.107378
0.19652
0.00195338
0.108412
0.205445
-4.89647e-08
0.108903
0.210003
-0.00195348
0.108903
0.210003
-0.00334224
0.108412
0.205445
-0.00368158
0.107378
0.19652
-0.00263319
0.105653
0.183613
0.103324
0.167254
-7.64829e-08
0.00296206
0.0857565
0.151759
-6.42727e-09
0.00412233
0.0870201
0.167677
0.00373393
0.0878931
0.180123
0.00217884
0.0883824
0.188675
-5.94566e-08
0.0886067
0.193026
-0.00217896
0.0886067
0.193026
-0.00373404
0.0883824
0.188675
-0.00412243
0.0878932
0.180123
-0.00296215
0.0870201
0.167677
0.0857565
0.151759
-8.20876e-08
0.00324032
0.0669201
0.132967
-8.42725e-09
0.00451927
0.0673303
0.148411
0.00408917
0.0676079
0.16039
0.00238251
0.0677507
0.16857
-6.96684e-08
0.0678138
0.172718
-0.00238264
0.0678138
0.172718
-0.0040893
0.0677507
0.16857
-0.00451938
0.0676079
0.16039
-0.00324042
0.0673303
0.148411
0.0669201
0.132967
-8.52345e-08
0.00362215
0.112021
-1.05839e-08
0.0484235
0.00500371
0.127026
0.0483456
0.00448928
0.138565
0.048335
0.00259996
0.1464
0.0483336
-7.76467e-08
0.150359
0.0483293
-0.00260011
0.150359
0.0483293
-0.00448942
0.1464
0.0483336
-0.00500383
0.138565
0.048335
-0.00362225
0.127026
0.0483456
0.112021
-8.51178e-08
0.0484235
4.01822e-05
0.00941971
0.0356026
-4.11505e-10
3.64508e-05
0.0103942
0.0393094
3.02807e-05
0.0112223
0.0424519
1.66722e-05
0.011837
0.0447264
-2.92749e-09
0.012161
0.0459208
-1.66784e-05
0.012161
0.0459208
-3.02872e-05
0.011837
0.0447264
-3.64583e-05
0.0112223
0.0424519
-4.01906e-05
0.0103942
0.0393094
0.00941971
0.0356026
-9.2098e-09
0.000270892
0.0284171
0.0927687
-1.03219e-09
0.000366229
0.0309389
0.102246
0.000326103
0.0330501
0.110214
0.000189837
0.0345712
0.115954
-9.25721e-09
0.0353656
0.118958
-0.000189856
0.0353656
0.118958
-0.000326123
0.0345712
0.115954
-0.000366252
0.0330501
0.110214
-0.000270916
0.0309389
0.102246
0.0284171
0.0927687
-2.51682e-08
0.000568513
0.0477149
0.133488
-1.64368e-09
0.000803889
0.0513822
0.147004
0.000726487
0.0544091
0.158259
0.0004252
0.0565391
0.16632
-1.6145e-08
0.0576413
0.170525
-0.000425233
0.0576413
0.170525
-0.000726521
0.0565391
0.16632
-0.000803925
0.0544091
0.158259
-0.00056855
0.0513823
0.147004
0.047715
0.133488
-3.92066e-08
0.000904319
0.0619782
0.159346
-2.35076e-09
0.00129395
0.0660962
0.175427
0.00117934
0.0694504
0.18868
0.000691712
0.0717613
0.198111
-2.34654e-08
0.0729454
0.203011
-0.00069176
0.0729454
0.203011
-0.00117939
0.0717614
0.198111
-0.001294
0.0694504
0.18868
-0.000904369
0.0660963
0.175427
0.0619782
0.159346
-5.11931e-08
0.00125448
0.0694764
0.172528
-3.24528e-09
0.00179166
0.0734326
0.19005
0.00163715
0.0766085
0.204337
0.000960477
0.0787503
0.214437
-3.14013e-08
0.0798356
0.219664
-0.00096054
0.0798356
0.219664
-0.00163721
0.0787504
0.214437
-0.00179172
0.0766085
0.204337
-0.00125454
0.0734326
0.19005
0.0694764
0.172528
-6.11659e-08
0.0016004
0.070392
0.175324
-4.34335e-09
0.00226987
0.0737767
0.193487
0.00207305
0.0764427
0.208143
0.00121548
0.0781996
0.218433
-4.00522e-08
0.0790786
0.223738
-0.00121556
0.0790786
0.223738
-0.00207313
0.0781996
0.218433
-0.00226995
0.0764427
0.208143
-0.00160047
0.0737768
0.193487
0.070392
0.175324
-6.90513e-08
0.00192133
0.065868
0.169856
-5.78576e-09
0.00270791
0.068475
0.188128
0.00247054
0.0704753
0.202725
0.00144769
0.0717611
0.212906
-4.92743e-08
0.0723957
0.218134
-0.00144779
0.0723957
0.218134
-0.00247063
0.0717611
0.212906
-0.002708
0.0704753
0.202725
-0.00192141
0.068475
0.188128
0.065868
0.169856
-7.46907e-08
0.00220354
0.0574415
0.157982
-7.66168e-09
0.00309889
0.0592193
0.176037
0.0028262
0.0605438
0.190327
0.00165549
0.0613763
0.20023
-5.83714e-08
0.0617826
0.205295
-0.0016556
0.0617826
0.205295
-0.00282631
0.0613764
0.20023
-0.00309899
0.0605439
0.190327
-0.00220363
0.0592193
0.176037
0.0574415
0.157982
-7.78276e-08
0.00246
0.0466902
0.141258
-9.98085e-09
0.00346102
0.0477004
0.158929
0.00315265
0.0484496
0.172792
0.00184443
0.0489182
0.182336
-6.60941e-08
0.0491465
0.187198
-0.00184456
0.0491465
0.187198
-0.00315276
0.0489182
0.182336
-0.00346112
0.0484496
0.172792
-0.00246009
0.0477004
0.158929
0.0466902
0.141258
-7.77545e-08
0.00275681
0.120956
-1.26136e-08
0.0349989
0.00384506
0.138201
0.035437
0.00348058
0.151589
0.0357905
0.00202732
0.160744
0.0360274
-7.05315e-08
0.165389
0.0361434
-0.00202746
0.165389
0.0361434
-0.00348071
0.160744
0.0360274
-0.00384516
0.151589
0.0357905
-0.0027569
0.138201
0.035437
0.120956
-7.37691e-08
0.0349989
-3.12652e-05
0.00373732
0.0318965
-3.7261e-10
-4.46071e-05
0.00411418
0.0352085
-3.63271e-05
0.00443454
0.0380091
-2.01378e-05
0.00467251
0.0400377
-2.47377e-09
0.00479707
0.0411035
2.01328e-05
0.00479707
0.0411035
3.63215e-05
0.00467251
0.0400377
4.46005e-05
0.00443454
0.0380091
3.1258e-05
0.00411418
0.0352085
0.00373732
0.0318965
-7.86523e-09
3.70341e-06
0.0114734
0.0850289
-9.56964e-10
7.55661e-06
0.0125631
0.0937932
1.16311e-05
0.0134877
0.101157
9.28747e-06
0.0141601
0.106468
-8.1132e-09
0.0145126
0.109252
-9.304e-06
0.0145126
0.109252
-1.16489e-05
0.0141601
0.106468
-7.57401e-06
0.0134877
0.101157
-3.72355e-06
0.0125631
0.0937932
0.0114734
0.0850289
-2.1661e-08
0.000101964
0.0202422
0.124617
-1.59225e-09
0.000154731
0.0220239
0.13749
0.000148923
0.0235245
0.148229
9.09212e-05
0.0245992
0.155939
-1.40461e-08
0.0251597
0.159968
-9.09496e-05
0.0251597
0.159968
-0.000148953
0.0245992
0.155939
-0.000154762
0.0235245
0.148229
-0.000101996
0.0220239
0.13749
0.0202422
0.124617
-3.37531e-08
0.000250348
0.027826
0.151512
-2.32897e-09
0.000372791
0.0300575
0.167271
0.000351293
0.0319171
0.180309
0.000210634
0.0332284
0.189622
-2.03627e-08
0.0339076
0.194474
-0.000210675
0.0339076
0.194474
-0.000351335
0.0332284
0.189622
-0.000372834
0.0319171
0.180309
-0.000250391
0.0300575
0.167271
0.027826
0.151512
-4.39949e-08
0.000433271
0.0329053
0.167015
-3.22401e-09
0.000635405
0.0352756
0.184629
0.000593649
0.0372235
0.199073
0.000353419
0.0385746
0.209331
-2.70647e-08
0.0392688
0.214656
-0.000353473
0.0392688
0.214656
-0.000593703
0.0385746
0.209331
-0.000635458
0.0372235
0.199073
-0.000433323
0.0352756
0.184629
0.0329053
0.167015
-5.23116e-08
0.000635863
0.0349727
0.172621
-4.34508e-09
0.000920484
0.0372032
0.191275
0.000854989
0.0390024
0.206429
0.00050689
0.0402283
0.217128
-3.41016e-08
0.0408523
0.222661
-0.000506957
0.0408523
0.222661
-0.000855055
0.0402284
0.217128
-0.000920547
0.0390024
0.206429
-0.000635922
0.0372032
0.191275
0.0349727
0.172621
-5.85619e-08
0.000842693
0.0341241
0.169862
-5.79027e-09
0.001209
0.0360148
0.18895
0.00111863
0.0375037
0.204314
0.000661467
0.0384994
0.215093
-4.12166e-08
0.0390011
0.220646
-0.000661548
0.0390011
0.220646
-0.00111871
0.0384994
0.215093
-0.00120907
0.0375037
0.204314
-0.000842757
0.0360148
0.18895
0.0341242
0.169862
-6.25707e-08
0.00104262
0.0308485
0.160215
-7.60306e-09
0.0014902
0.0322868
0.179318
0.00137554
0.0333907
0.194555
0.000811844
0.0341165
0.205177
-4.77133e-08
0.034479
0.210629
-0.000811938
0.034479
0.210629
-0.00137563
0.0341165
0.205177
-0.00149028
0.0333907
0.194555
-0.00104269
0.0322868
0.179318
0.0308485
0.160215
-6.40659e-08
0.00124048
0.0258406
0.145025
-9.80018e-09
0.00176883
0.0267998
0.163888
0.00162702
0.0275253
0.178799
0.000957658
0.0279985
0.189124
-5.25037e-08
0.0282338
0.194401
-0.00095776
0.0282338
0.194401
-0.00162711
0.0279985
0.189124
-0.00176891
0.0275253
0.178799
-0.00124054
0.0267998
0.163888
0.0258407
0.145025
-6.24827e-08
0.00145878
0.125483
-1.20897e-08
0.0198542
0.00206242
0.144008
0.0203888
0.00188453
0.158483
0.0208093
0.0011039
0.168431
0.0210918
-5.40069e-08
0.173494
0.0212324
-0.00110401
0.173494
0.0212324
-0.00188462
0.168431
0.0210918
-0.0020625
0.158483
0.0208093
-0.00145884
0.144008
0.0203888
0.125483
-5.72861e-08
0.0198542
2.74331e-06
0.00113244
0.0307613
-2.90546e-10
5.58699e-07
0.00125892
0.0339518
5.191e-07
0.0013697
0.0366394
2.83956e-07
0.00145433
0.0385836
-2.04059e-09
0.00149956
0.0396043
-2.88134e-07
0.00149956
0.0396043
-5.23562e-07
0.00145433
0.0385836
-5.63799e-07
0.0013697
0.0366394
-2.74891e-06
0.00125892
0.0339518
0.00113244
0.0307613
-6.17767e-09
2.78693e-05
0.00407225
0.0820612
-7.67493e-10
3.51299e-05
0.00449456
0.0905503
3.17396e-05
0.00485881
0.0976711
1.86213e-05
0.00512935
0.102806
-6.64234e-09
0.00527278
0.105497
-1.86349e-05
0.00527278
0.105497
-3.17537e-05
0.00512936
0.102806
-3.51452e-05
0.00485882
0.0976711
-2.78853e-05
0.00449456
0.0905503
0.00407225
0.0820612
-1.70776e-08
7.44287e-05
0.00783255
0.120782
-1.35551e-09
0.000104151
0.00858999
0.133365
9.53312e-05
0.00923642
0.14386
5.63147e-05
0.00970748
0.1514
-1.13437e-08
0.00995565
0.155342
-5.63377e-05
0.00995565
0.155342
-9.53549e-05
0.00970748
0.1514
-0.000104176
0.00923643
0.14386
-7.44542e-05
0.00859
0.133365
0.00783255
0.120782
-2.66972e-08
0.000142176
0.0114469
0.147756
-2.02489e-09
0.000204878
0.0124708
0.163327
0.000189343
0.0133353
0.176226
0.000112124
0.0139552
0.185452
-1.62548e-08
0.0142796
0.190262
-0.000112156
0.0142796
0.190262
-0.000189376
0.0139552
0.185452
-0.000204912
0.0133353
0.176226
-0.00014221
0.0124708
0.163327
0.0114469
0.147756
-3.48245e-08
0.000228332
0.014211
0.164023
-2.82142e-09
0.000331011
0.0153737
0.181624
0.000306976
0.0163427
0.196089
0.00018188
0.017027
0.206384
-2.13228e-08
0.0173821
0.211736
-0.000181922
0.0173821
0.211736
-0.000307018
0.017027
0.206384
-0.000331054
0.0163427
0.196089
-0.000228373
0.0153737
0.181624
0.014211
0.164023
-4.13764e-08
0.000328132
0.0157263
0.170777
-3.766e-09
0.00047464
0.0168878
0.189614
0.000440316
0.0178402
0.204966
0.000260779
0.018502
0.215832
-2.64721e-08
0.0188426
0.221462
-0.000260831
0.0188426
0.221462
-0.000440367
0.018502
0.215832
-0.000474689
0.0178403
0.204966
-0.000328179
0.0168879
0.189614
0.0157263
0.170777
-4.62316e-08
0.000435201
0.0158785
0.169275
-4.93495e-09
0.000627157
0.016919
0.188727
0.000581386
0.0177551
0.204445
0.000344082
0.0183266
0.215505
-3.14746e-08
0.018618
0.221215
-0.000344144
0.018618
0.221215
-0.000581446
0.0183266
0.215505
-0.000627213
0.0177551
0.204445
-0.000435251
0.016919
0.188727
0.0158785
0.169275
-4.92374e-08
0.000543946
0.0147799
0.16077
-6.39068e-09
0.00078214
0.0156166
0.180382
0.000724186
0.0162746
0.196094
0.00042812
0.0167173
0.207082
-3.58202e-08
0.016941
0.212734
-0.00042819
0.016941
0.212734
-0.000724252
0.0167173
0.207082
-0.0007822
0.0162746
0.196094
-0.000543997
0.0156166
0.180382
0.0147799
0.160769
-5.01782e-08
0.000654726
0.0126975
0.146453
-8.08927e-09
0.000938204
0.0132934
0.165928
0.000865742
0.0137536
0.181393
0.000510581
0.0140596
0.192137
-3.87675e-08
0.0142132
0.197639
-0.000510656
0.0142132
0.197639
-0.000865811
0.0140596
0.192137
-0.000938264
0.0137536
0.181393
-0.000654776
0.0132934
0.165928
0.0126975
0.146453
-4.86862e-08
0.000767905
0.127427
-9.74134e-09
0.00998647
0.00109268
0.146632
0.0103451
0.00100372
0.161699
0.010626
0.000589953
0.172088
0.0108164
-3.92999e-08
0.177386
0.0109119
-0.000590029
0.177386
0.010912
-0.00100379
0.172088
0.0108164
-0.00109273
0.161699
0.0106261
-0.000767952
0.146632
0.0103451
0.127427
-4.4521e-08
0.00998647
-5.12501e-06
0.000480507
0.030286
-2.21141e-10
-7.72413e-06
0.000528352
0.033426
-6.29677e-06
0.00056887
0.0360691
-3.51281e-06
0.000599545
0.0379813
-1.63925e-09
0.000615685
0.0389851
3.50946e-06
0.000615685
0.0389851
6.29317e-06
0.000599545
0.0379813
7.7202e-06
0.000568871
0.0360691
5.1208e-06
0.000528353
0.033426
0.000480508
0.0302859
-4.62481e-09
-2.42968e-06
0.00165445
0.0808897
-6.14387e-10
-4.18981e-06
0.00182104
0.0892594
-3.00862e-06
0.00196336
0.0962754
-1.3932e-06
0.00206904
0.101335
-5.18827e-09
0.00212495
0.103986
1.38263e-06
0.00212495
0.103986
2.99752e-06
0.00206904
0.101335
4.1779e-06
0.00196336
0.0962754
2.4169e-06
0.00182105
0.0892594
0.00165445
0.0808897
-1.29183e-08
1.17989e-05
0.00319342
0.119232
-1.08325e-09
1.71266e-05
0.00350781
0.131673
1.6801e-05
0.00377617
0.142047
1.04329e-05
0.00397274
0.149503
-8.79461e-09
0.00407653
0.153401
-1.04506e-05
0.00407653
0.153401
-1.68194e-05
0.00397274
0.149503
-1.71456e-05
0.00377618
0.142047
-1.1818e-05
0.00350781
0.131673
0.00319342
0.119232
-2.00378e-08
3.73348e-05
0.00475303
0.146159
-1.60095e-09
5.52277e-05
0.00520001
0.161617
5.24497e-05
0.00557918
0.174425
3.16485e-05
0.00585337
0.183592
-1.2477e-08
0.00599743
0.188373
-3.16736e-05
0.00599743
0.188373
-5.24752e-05
0.00585338
0.183592
-5.52535e-05
0.00557919
0.174425
-3.73604e-05
0.00520002
0.161617
0.00475303
0.146159
-2.61736e-08
7.32124e-05
0.00603465
0.162668
-2.20357e-09
0.000107988
0.00656723
0.180222
0.000101765
0.00701431
0.19466
6.095e-05
0.00733333
0.204945
-1.61842e-08
0.00749986
0.210294
-6.09824e-05
0.00749987
0.210294
-0.000101797
0.00733333
0.204945
-0.00010802
0.00701432
0.19466
-7.32433e-05
0.00656723
0.180222
0.00603465
0.162668
-3.11727e-08
0.000117553
0.00683302
0.169861
-2.91379e-09
0.000172299
0.00738991
0.188737
0.000161685
0.00785066
0.204141
9.64888e-05
0.00817476
0.215056
-1.98555e-08
0.00834268
0.220715
-9.65283e-05
0.00834268
0.220715
-0.000161724
0.00817477
0.215056
-0.000172336
0.00785067
0.204141
-0.000117588
0.00738992
0.188737
0.00683303
0.169861
-3.49375e-08
0.000167708
0.00705149
0.168889
-3.769e-09
0.000244451
0.00757282
0.188468
0.000228723
0.00799629
0.204315
0.000136174
0.0082897
0.215483
-2.33302e-08
0.00844046
0.221254
-0.00013622
0.00844046
0.221254
-0.000228767
0.0082897
0.215483
-0.000244492
0.0079963
0.204315
-0.000167746
0.00757283
0.188468
0.0070515
0.168889
-3.73835e-08
0.00022129
0.00669566
0.160904
-4.77251e-09
0.000321476
0.00713399
0.180721
0.000299971
0.00748301
0.196628
0.000178189
0.00772125
0.207773
-2.62795e-08
0.0078426
0.21351
-0.000178241
0.00784261
0.21351
-0.00030002
0.00772125
0.207773
-0.000321521
0.00748302
0.196628
-0.00022133
0.007134
0.180721
0.00669567
0.160904
-3.83526e-08
0.000278722
0.00585277
0.147017
-5.90909e-09
0.000402658
0.00618112
0.166757
0.000373799
0.00643766
0.182467
0.000221274
0.00661044
0.1934
-2.82483e-08
0.0066978
0.199006
-0.000221329
0.0066978
0.199006
-0.00037385
0.00661045
0.1934
-0.000402703
0.00643767
0.182467
-0.000278761
0.00618113
0.166757
0.00585278
0.147017
-3.76384e-08
0.00033892
0.128272
-7.0023e-09
0.00466889
0.000485831
0.147788
0.00487855
0.00044876
0.16313
0.00504377
0.000264654
0.173727
0.00515641
-2.86494e-08
0.179135
0.00521328
-0.00026471
0.179135
0.00521328
-0.000448811
0.173726
0.00515641
-0.000485875
0.16313
0.00504378
-0.000338956
0.147788
0.00487856
0.128271
-3.51032e-08
0.00466889
-4.41232e-07
0.000141553
0.0301448
-1.58088e-10
-1.10244e-06
0.000157091
0.0332696
-8.44533e-07
0.000170737
0.0358981
-4.69313e-07
0.000181479
0.0377994
-1.29527e-09
0.000187226
0.0387974
4.66664e-07
0.000187226
0.0387974
8.41778e-07
0.000181479
0.0377994
1.09945e-06
0.000170737
0.0358981
4.38054e-07
0.000157091
0.0332696
0.000141554
0.0301448
-3.24619e-09
1.65002e-06
0.000560097
0.0804695
-4.53951e-10
1.58962e-06
0.000620477
0.0887961
1.55769e-06
0.000673073
0.0957731
9.73685e-07
0.000712896
0.100804
-4.02668e-09
0.000734169
0.10344
-9.81855e-07
0.00073417
0.10344
-1.56609e-06
0.000712896
0.100804
-1.59824e-06
0.000673074
0.0957731
-1.6587e-06
0.000620478
0.0887961
0.000560098
0.0804695
-9.08291e-09
7.70605e-06
0.00115398
0.11863
-8.00955e-10
1.04873e-05
0.00127483
0.131016
9.76281e-06
0.00137937
0.141342
5.85112e-06
0.00145705
0.148762
-6.73983e-09
0.00149837
0.152642
-5.86472e-06
0.00149837
0.152642
-9.77665e-06
0.00145705
0.148762
-1.05014e-05
0.00137938
0.141342
-7.72008e-06
0.00127484
0.131016
0.00115398
0.11863
-1.43427e-08
1.82247e-05
0.00179081
0.145504
-1.18075e-09
2.6179e-05
0.00197049
0.160914
2.44427e-05
0.00212467
0.173682
1.45911e-05
0.0022376
0.182821
-9.45774e-09
0.00229735
0.187588
-1.46101e-05
0.00229735
0.187588
-2.44618e-05
0.0022376
0.182821
-2.61981e-05
0.00212468
0.173682
-1.82434e-05
0.00197049
0.160914
0.00179081
0.145504
-1.88933e-08
3.32531e-05
0.00234677
0.162079
-1.60705e-09
4.84382e-05
0.00256918
0.179608
4.53227e-05
0.00275801
0.19403
2.70263e-05
0.00289446
0.204307
-1.2128e-08
0.0029662
0.209652
-2.70506e-05
0.0029662
0.209652
-4.53468e-05
0.00289447
0.204307
-4.84619e-05
0.00275802
0.19403
-3.32757e-05
0.00256918
0.179608
0.00234678
0.162079
-2.26567e-08
5.23383e-05
0.00272699
0.169429
-2.08689e-09
7.64035e-05
0.00296754
0.188314
7.15152e-05
0.00316899
0.203734
4.261e-05
0.00331254
0.214667
-1.47163e-08
0.00338744
0.220337
-4.26392e-05
0.00338744
0.220337
-7.15438e-05
0.00331254
0.214667
-7.64311e-05
0.003169
0.203734
-5.23642e-05
0.00296755
0.188314
0.002727
0.169429
-2.55756e-08
7.45595e-05
0.00287675
0.168664
-2.64597e-09
0.000108711
0.00310899
0.188292
0.000101695
0.00330017
0.204191
6.05327e-05
0.0034344
0.215402
-1.71282e-08
0.00350387
0.221198
-6.05666e-05
0.00350387
0.221198
-0.000101728
0.0034344
0.215402
-0.000108741
0.00330017
0.204191
-7.45876e-05
0.00310899
0.188292
0.00287675
0.168664
-2.76107e-08
9.8941e-05
0.00278403
0.160898
-3.29912e-09
0.000144019
0.0029852
0.180799
0.000134492
0.00314764
0.19679
7.99251e-05
0.00325993
0.208002
-1.9185e-08
0.00331752
0.213776
-7.99629e-05
0.00331752
0.213776
-0.000134528
0.00325993
0.208002
-0.000144052
0.00314764
0.19679
-9.89705e-05
0.0029852
0.180799
0.00278403
0.160898
-2.8687e-08
0.000125347
0.00247484
0.147201
-4.00273e-09
0.000181436
0.00263044
0.167055
0.00016865
0.00275326
0.182874
9.99215e-05
0.0028368
0.193892
-2.06505e-08
0.00287926
0.199544
-9.99619e-05
0.00287926
0.199544
-0.000168688
0.0028368
0.193892
-0.000181471
0.00275326
0.182874
-0.000125377
0.00263045
0.167055
0.00247485
0.147201
-2.87086e-08
0.000151381
0.128588
-4.60097e-09
0.00200676
0.000218042
0.148242
0.00210898
0.000202112
0.16371
0.00218969
0.000119461
0.174401
0.00224498
-2.1227e-08
0.179861
0.00227302
-0.000119502
0.179861
0.00227302
-0.00020215
0.174401
0.00224498
-0.000218076
0.16371
0.00218969
-0.00015141
0.148242
0.00210898
0.128588
-2.76048e-08
0.00200676
-1.14824e-06
5.8926e-05
0.0300871
-1.07886e-10
-1.67442e-06
6.46253e-05
0.0332055
-1.37788e-06
6.94828e-05
0.0358284
-7.71036e-07
7.32437e-05
0.0377256
-1.00137e-09
7.52244e-05
0.0387214
7.69013e-07
7.52244e-05
0.0387214
1.37582e-06
7.32438e-05
0.0377256
1.67229e-06
6.9483e-05
0.0358284
1.14608e-06
6.46255e-05
0.0332055
5.89262e-05
0.0300871
-2.19949e-09
-1.52215e-06
0.000217638
0.0803123
-3.20994e-10
-2.32053e-06
0.000240119
0.0886214
-1.94972e-06
0.000259534
0.0955827
-1.07641e-06
0.000274222
0.100603
-3.08031e-09
0.000282037
0.103233
1.07021e-06
0.000282037
0.103233
1.94347e-06
0.000274223
0.100603
2.3142e-06
0.000259535
0.0955827
1.51586e-06
0.00024012
0.0886214
0.000217639
0.0803123
-6.26167e-09
1.45575e-07
0.000443918
0.118404
-5.60497e-10
3.88496e-08
0.000490446
0.130766
1.74128e-07
0.000530574
0.14107
1.93947e-07
0.000560443
0.148476
-5.0862e-09
0.000576357
0.152348
-2.04124e-07
0.000576357
0.152348
-1.84498e-07
0.000560444
0.148476
-4.90866e-08
0.000530575
0.14107
-1.55538e-07
0.000490447
0.130766
0.000443919
0.118404
-9.94308e-09
3.67809e-06
0.000694135
0.14525
-8.13855e-10
5.36525e-06
0.000765509
0.160637
5.19497e-06
0.000826796
0.173386
3.18439e-06
0.000871885
0.182512
-7.06817e-09
0.000895805
0.187272
-3.19853e-06
0.000895805
0.187272
-5.20903e-06
0.000871886
0.182512
-5.37911e-06
0.000826797
0.173386
-3.69139e-06
0.000765511
0.160637
0.000694137
0.14525
-1.31884e-08
9.33583e-06
0.000921522
0.161842
-1.09211e-09
1.37607e-05
0.00101258
0.179356
1.30702e-05
0.00109009
0.193768
7.87739e-06
0.00114643
0.204037
-8.97399e-09
0.00117614
0.20938
-7.89527e-06
0.00117614
0.20938
-1.30878e-05
0.00114643
0.204037
-1.37779e-05
0.00109009
0.193768
-9.35205e-06
0.00101258
0.179356
0.000921525
0.161842
-1.5948e-08
1.68931e-05
0.00108645
0.169247
-1.40241e-09
2.48879e-05
0.00118781
0.188131
2.35125e-05
0.00127302
0.203553
1.40976e-05
0.00133414
0.214489
-1.07914e-08
0.00136616
0.220161
-1.4119e-05
0.00136616
0.220161
-2.35334e-05
0.00133414
0.214489
-2.49079e-05
0.00127303
0.203553
-1.69117e-05
0.00118782
0.188131
0.00108645
0.169247
-1.81678e-08
2.60208e-05
0.00116272
0.168562
-1.74893e-09
3.82482e-05
0.00126331
0.188204
3.6033e-05
0.00134652
0.20412
2.15454e-05
0.00140537
0.215345
-1.24759e-08
0.00143595
0.221149
-2.15701e-05
0.00143595
0.221149
-3.60568e-05
0.00140537
0.215345
-3.82706e-05
0.00134653
0.20412
-2.60413e-05
0.00126331
0.188204
0.00116272
0.168562
-1.98381e-08
3.63751e-05
0.00114044
0.160884
-2.13431e-09
5.33415e-05
0.00122997
0.180816
5.00986e-05
0.00130269
0.196838
2.98762e-05
0.00135333
0.208074
-1.39405e-08
0.0013794
0.213863
-2.99036e-05
0.0013794
0.213863
-5.01249e-05
0.00135333
0.208074
-5.33658e-05
0.0013027
0.196838
-3.63969e-05
0.00122997
0.180816
0.00114044
0.160884
-2.09278e-08
4.79944e-05
0.00102576
0.147268
-2.50913e-09
6.98663e-05
0.00109701
0.167166
6.5221e-05
0.0011536
0.183028
3.87425e-05
0.00119234
0.194079
-1.50736e-08
0.0012121
0.19975
-3.87721e-05
0.0012121
0.19975
-6.52491e-05
0.00119234
0.194079
-6.98918e-05
0.0011536
0.183028
-4.80169e-05
0.00109701
0.167166
0.00102576
0.147268
-2.13827e-08
5.98422e-05
0.128715
-2.84884e-09
0.000839452
8.66232e-05
0.148425
0.000887765
8.06057e-05
0.163943
0.000926093
4.77529e-05
0.174674
0.000952457
-1.57363e-08
0.180155
0.000965865
-4.77838e-05
0.180155
0.000965865
-8.06347e-05
0.174674
0.000952458
-8.66492e-05
0.163943
0.000926094
-5.98647e-05
0.148425
0.000887765
0.128715
-2.11827e-08
0.000839452
-2.42886e-07
1.43004e-05
0.030073
-7.07963e-11
-4.04016e-07
1.58944e-05
0.0331898
-3.33558e-07
1.73553e-05
0.0358109
-1.88965e-07
1.85557e-05
0.0377069
-7.50067e-10
1.92041e-05
0.038702
1.87461e-07
1.92041e-05
0.038702
3.32059e-07
1.85558e-05
0.0377069
4.02516e-07
1.73554e-05
0.0358109
2.41417e-07
1.58945e-05
0.0331898
1.43006e-05
0.030073
-1.44508e-09
-2.89506e-07
6.50698e-05
0.0802619
-2.09553e-10
-5.58763e-07
7.2487e-05
0.088565
-4.89233e-07
7.90944e-05
0.0955209
-2.76645e-07
8.42233e-05
0.100537
-2.27926e-09
8.69894e-05
0.103165
2.72088e-07
8.69895e-05
0.103165
4.84717e-07
8.42235e-05
0.100537
5.54295e-07
7.90948e-05
0.0955209
2.85119e-07
7.24876e-05
0.088565
6.50702e-05
0.0802618
-4.17031e-09
3.12071e-07
0.000144499
0.118324
-3.65986e-10
2.79221e-07
0.000160873
0.130677
2.64541e-07
0.000175273
0.140974
1.69481e-07
0.00018619
0.148374
-3.74323e-09
0.000192056
0.152243
-1.7695e-07
0.000192057
0.152243
-2.71927e-07
0.00018619
0.148374
-2.86371e-07
0.000175273
0.140974
-3.18684e-07
0.000160874
0.130677
0.0001445
0.118324
-6.63216e-09
1.66021e-06
0.000237163
0.145155
-5.30253e-10
2.28447e-06
0.000263363
0.160534
2.13341e-06
0.000286188
0.173275
1.28048e-06
0.000303224
0.182395
-5.16424e-09
0.000312329
0.187153
-1.29077e-06
0.000312329
0.187153
-2.14353e-06
0.000303225
0.182395
-2.29428e-06
0.000286189
0.173275
-1.66945e-06
0.000263364
0.160534
0.000237165
0.145155
-8.92412e-09
3.83912e-06
0.00032551
0.16175
-7.06039e-10
5.52761e-06
0.000360016
0.179258
5.17951e-06
0.000389756
0.193664
3.09685e-06
0.000411646
0.203931
-6.51834e-09
0.000423269
0.209272
-3.10981e-06
0.000423269
0.209272
-5.19219e-06
0.000411646
0.203931
-5.53978e-06
0.000389757
0.193664
-3.85047e-06
0.000360017
0.179258
0.000325512
0.16175
-1.08971e-08
6.82107e-06
0.000393574
0.169172
-8.90679e-10
9.94945e-06
0.000433002
0.188055
9.3422e-06
0.000466534
0.203477
5.58081e-06
0.000490871
0.214413
-7.79552e-09
0.000503699
0.220086
-5.59627e-06
0.000503699
0.220086
-9.35723e-06
0.000490871
0.214413
-9.96372e-06
0.000466535
0.203477
-6.83422e-06
0.000433004
0.188055
0.000393575
0.169172
-1.25364e-08
1.05028e-05
0.000429804
0.168515
-1.08414e-09
1.53814e-05
0.000469829
0.188163
1.44509e-05
0.000503314
0.204084
8.62576e-06
0.000527255
0.215315
-8.97407e-09
0.000539769
0.221122
-8.64351e-06
0.000539769
0.221122
-1.4468e-05
0.000527256
0.215315
-1.53975e-05
0.000503315
0.204084
-1.05174e-05
0.000469831
0.188163
0.000429806
0.168515
-1.38518e-08
1.47529e-05
0.000428714
0.16087
-1.29412e-09
2.16117e-05
0.000465094
0.180814
2.02743e-05
0.000494949
0.196847
1.20814e-05
0.000515938
0.208093
-1.00105e-08
0.000526799
0.213888
-1.21011e-05
0.000526799
0.213888
-2.02932e-05
0.000515939
0.208093
-2.16292e-05
0.000494951
0.196847
-1.47686e-05
0.000465096
0.180814
0.000428716
0.16087
-1.48203e-08
1.95248e-05
0.00039126
0.147286
-1.50523e-09