/*--------------------------------*- C++ -*----------------------------------*\
| =========                 |                                                 |
| \\      /  F ield         | OpenFOAM: The Open Source CFD Toolbox           |
|  \\    /   O peration     | Version:  2106                                  |
|   \\  /    A nd           | Website:  www.openfoam.com                      |
|    \\/     M anipulation  |                                                 |
\*---------------------------------------------------------------------------*/
FoamFile
{
    version     2.0;
    format      ascii;
    arch        "LSB;label=32;scalar=64";
    class       surfaceScalarField;
    location    "0.08";
    object      phi;
}
// * * * * * * * * * * * * * * * * * * * * * * * * * * * * * * * * * * * * * //

dimensions      [0 3 -1 0 0 0 0];

oriented        oriented;

internalField   nonuniform List<scalar> 
29100
(
0.00117897
0.148561
0.08253
-2.58052e-10
0.00145663
0.153242
0.0907128
0.0012512
0.156502
0.097555
0.000713126
0.158661
0.102456
-1.53191e-09
0.159741
0.10501
-0.000713128
0.159741
0.10501
-0.0012512
0.158661
0.102456
-0.00145664
0.156502
0.097555
-0.00117897
0.153242
0.0907128
0.148561
0.08253
-4.69973e-09
0.00232802
0.201986
0.159701
-6.51112e-10
0.0032417
0.205911
0.173646
0.00289494
0.208438
0.185065
0.00167572
0.209958
0.193149
-3.41856e-09
0.210689
0.197329
-0.00167572
0.210689
0.197329
-0.00289495
0.209958
0.193149
-0.0032417
0.208438
0.185065
-0.00232803
0.205911
0.173646
0.201986
0.159701
-1.03382e-08
0.00290992
0.207574
0.190141
-8.75766e-10
0.00412391
0.209331
0.205591
0.00370525
0.210279
0.218036
0.00214658
0.210632
0.226761
-4.7807e-09
0.210755
0.231247
-0.00214659
0.210755
0.231247
-0.00370527
0.210632
0.226761
-0.00412392
0.210279
0.218036
-0.00290994
0.209331
0.205591
0.207574
0.190141
-1.50027e-08
0.0032363
0.189158
0.197003
-1.08724e-09
0.00451624
0.18889
0.212383
0.00404451
0.188417
0.224594
0.00233713
0.187784
0.23308
-5.98136e-09
0.187402
0.237419
-0.00233714
0.187402
0.237419
-0.00404452
0.187784
0.23308
-0.00451625
0.188417
0.224594
-0.00323632
0.18889
0.212383
0.189158
0.197003
-1.8759e-08
0.00333985
0.160498
0.190328
-1.32935e-09
0.00458589
0.158831
0.205031
0.00408886
0.157419
0.216559
0.00235724
0.156182
0.224508
-7.46155e-09
0.155498
0.228554
-0.00235726
0.155498
0.228554
-0.00408888
0.156182
0.224508
-0.00458591
0.157419
0.216559
-0.00333988
0.158831
0.205031
0.160498
0.190328
-2.22269e-08
0.0032865
0.129423
0.175981
-1.47649e-09
0.00445475
0.127023
0.189855
0.00395613
0.125161
0.200623
0.00227693
0.123685
0.207998
-9.84773e-09
0.122895
0.211738
-0.00227695
0.122895
0.211738
-0.00395615
0.123685
0.207998
-0.00445478
0.125161
0.200623
-0.00328653
0.127023
0.189855
0.129423
0.175981
-2.58684e-08
0.00315532
0.100066
0.157579
-1.56479e-09
0.00423291
0.0974635
0.170693
0.0037461
0.0955257
0.180793
0.00215371
0.0940791
0.18767
-1.33914e-08
0.0933212
0.191148
-0.00215374
0.0933212
0.191148
-0.00374613
0.0940791
0.18767
-0.00423294
0.0955257
0.180793
-0.00315535
0.0974635
0.170693
0.100066
0.157579
-2.98436e-08
0.00298862
0.0743317
0.137308
-1.40066e-09
0.00399286
0.0718567
0.14981
0.00352873
0.070082
0.159381
0.00202839
0.0688315
0.165868
-1.80379e-08
0.0681935
0.169141
-0.00202842
0.0681935
0.169141
-0.00352877
0.0688315
0.165868
-0.0039929
0.070082
0.159381
-0.00298866
0.0718567
0.14981
0.0743317
0.137308
-3.31333e-08
0.00283069
0.0528273
0.116421
-2.66399e-09
0.00380241
0.0506328
0.128456
0.00336161
0.0491722
0.137627
0.00193151
0.0482128
0.143817
-2.40714e-08
0.0477387
0.146934
-0.00193156
0.0477387
0.146934
-0.00336166
0.0482128
0.143817
-0.00380245
0.0491722
0.137627
-0.00283072
0.0506328
0.128456
0.0528273
0.116421
-3.4403e-08
0.00292833
0.0955844
-5.01283e-09
0.0352462
0.00383808
0.107259
0.0336647
0.0033414
0.116122
0.0326267
0.00190158
0.122083
0.031987
-3.12387e-08
0.125078
0.0316737
-0.00190164
0.125078
0.0316737
-0.00334145
0.122083
0.031987
-0.00383813
0.116122
0.0326267
-0.00292837
0.107259
0.0336647
0.0955844
-3.65628e-08
0.0352462
-0.000239615
0.0336122
0.0491575
-2.15781e-10
-0.000237399
0.036481
0.0542295
-0.000166224
0.0389175
0.0585663
-8.23236e-05
0.0406528
0.0617195
-1.40479e-09
0.0415492
0.0633786
8.23202e-05
0.0415492
0.0633786
0.000166221
0.0406528
0.0617195
0.000237394
0.0389175
0.0585663
0.00023961
0.036481
0.0542295
0.0336122
0.0491575
-5.90316e-09
2.32509e-06
0.0707596
0.122551
-1.84794e-10
0.000166322
0.0755332
0.13443
0.000224909
0.0795142
0.14441
0.000157461
0.0822802
0.151589
-3.78448e-09
0.083694
0.155342
-0.000157469
0.083694
0.155342
-0.000224918
0.0822802
0.151589
-0.000166333
0.0795142
0.14441
-2.33704e-06
0.0755332
0.13443
0.0707596
0.122551
-1.38023e-08
0.000430254
0.0935528
0.166918
-3.38383e-10
0.000767586
0.0984508
0.182336
0.000770189
0.102472
0.195076
0.00047668
0.105189
0.204146
-5.80799e-09
0.10656
0.208857
-0.000476693
0.10656
0.208857
-0.000770203
0.105189
0.204146
-0.000767602
0.102472
0.195076
-0.000430272
0.0984508
0.182336
0.0935528
0.166918
-2.05963e-08
0.000878748
0.101856
0.187822
-6.86841e-10
0.00136119
0.105839
0.204513
0.00129363
0.109055
0.218077
0.000776736
0.111154
0.227632
-7.91886e-09
0.112193
0.232563
-0.000776753
0.112193
0.232563
-0.00129365
0.111154
0.227632
-0.00136122
0.109055
0.218077
-0.000878771
0.105839
0.204513
0.101856
0.187822
-2.61404e-08
0.00127624
0.099035
0.191873
-1.10841e-09
0.00186259
0.101759
0.208524
0.00172448
0.103911
0.221842
0.00101966
0.105242
0.231124
-1.04891e-08
0.105883
0.235884
-0.00101968
0.105883
0.235884
-0.00172451
0.105242
0.231124
-0.00186261
0.103911
0.221842
-0.00127627
0.101759
0.208524
0.099035
0.191873
-3.07856e-08
0.00159367
0.0890032
0.184419
-1.19149e-09
0.0022488
0.0905509
0.200408
0.00204915
0.0917214
0.213012
0.00120039
0.0923771
0.221712
-1.41571e-08
0.0926734
0.226147
-0.00120042
0.0926734
0.226147
-0.00204918
0.0923771
0.221712
-0.00224883
0.0917214
0.213012
-0.0015937
0.0905509
0.200408
0.0890032
0.184419
-3.45031e-08
0.00182506
0.0751484
0.169609
-1.81769e-09
0.00252683
0.0757858
0.184757
0.00228126
0.0762056
0.196554
0.00132925
0.0763703
0.204629
-1.90926e-08
0.0764242
0.208726
-0.00132929
0.0764242
0.208726
-0.0022813
0.0763703
0.204629
-0.00252687
0.0762056
0.196554
-0.0018251
0.0757858
0.184757
0.0751484
0.169609
-3.77838e-08
0.00197827
0.0599978
0.15048
-3.65479e-09
0.00272327
0.0600047
0.164846
0.0024509
0.0599316
0.175927
0.00142503
0.0598039
0.18346
-2.48812e-08
0.0597222
0.187268
-0.00142508
0.0597222
0.187268
-0.00245095
0.0598039
0.18346
-0.00272332
0.0599316
0.175927
-0.00197831
0.0600047
0.164846
0.0599978
0.15048
-3.98741e-08
0.00209249
0.0452242
0.129102
-5.91377e-09
0.00289653
0.044822
0.142835
0.00260691
0.0445006
0.153347
0.00151378
0.0442605
0.160454
-3.11475e-08
0.0441357
0.164035
-0.00151384
0.0441357
0.164035
-0.00260697
0.0442605
0.160454
-0.00289658
0.0445006
0.153347
-0.00209253
0.044822
0.142835
0.0452241
0.129102
-4.09003e-08
0.00233262
0.106772
-7.80898e-09
0.0317041
0.00318826
0.120022
0.0312036
0.00283688
0.130105
0.0308684
0.00163421
0.136889
0.030657
-3.70653e-08
0.140298
0.0305504
-0.00163428
0.140298
0.0305504
-0.00283695
0.136889
0.030657
-0.00318831
0.130105
0.0308684
-0.00233266
0.120022
0.0312036
0.106772
-4.11217e-08
0.0317041
5.013e-05
0.00746771
0.0416396
-2.49496e-10
4.98276e-05
0.00823908
0.0459907
4.10606e-05
0.0088949
0.0496802
2.27748e-05
0.0093803
0.0523575
-1.37733e-09
0.00963607
0.0537653
-2.27778e-05
0.00963607
0.0537653
-4.1064e-05
0.0093803
0.0523575
-4.98316e-05
0.0088949
0.0496802
-5.01345e-05
0.00823908
0.0459907
0.00746771
0.0416396
-5.37144e-09
0.000255258
0.0219981
0.107765
-4.00621e-10
0.000343008
0.0238616
0.11872
0.000304212
0.0254171
0.127926
0.000176826
0.0265284
0.134568
-3.51737e-09
0.0271068
0.138048
-0.000176834
0.0271068
0.138048
-0.000304221
0.0265284
0.134568
-0.000343018
0.0254171
0.127926
-0.000255269
0.0238616
0.11872
0.0219981
0.107765
-1.26201e-08
0.000486153
0.0357404
0.152689
-5.89711e-10
0.000683512
0.0382308
0.16777
0.000616279
0.040271
0.180289
0.000360263
0.0416842
0.189246
-5.50527e-09
0.04241
0.193914
-0.000360275
0.04241
0.193914
-0.000616291
0.0416842
0.189246
-0.000683527
0.040271
0.180289
-0.00048617
0.0382308
0.16777
0.0357404
0.152689
-1.88697e-08
0.000717906
0.0446742
0.17817
-9.13919e-10
0.0010221
0.0471994
0.19524
0.000929303
0.0492317
0.20921
0.00054425
0.0505966
0.219105
-7.61399e-09
0.0512867
0.22423
-0.000544266
0.0512867
0.22423
-0.000929321
0.0505966
0.219105
-0.00102212
0.0492317
0.20921
-0.000717928
0.0471994
0.19524
0.0446742
0.17817
-2.40517e-08
0.000933916
0.0481033
0.18751
-1.39996e-09
0.00132656
0.0502561
0.205075
0.00120826
0.0519561
0.219236
0.000707379
0.0530585
0.229163
-9.93315e-09
0.0536053
0.234272
-0.0007074
0.0536053
0.234272
-0.00120829
0.0530585
0.229163
-0.00132659
0.0519561
0.219236
-0.000933942
0.0502561
0.205075
0.0481033
0.18751
-2.85075e-08
0.0011256
0.0468283
0.184568
-1.78057e-09
0.0015854
0.0484286
0.201776
0.00144163
0.0496606
0.215452
0.000842905
0.0504252
0.224944
-1.28943e-08
0.050795
0.229801
-0.000842931
0.050795
0.229801
-0.00144165
0.0504252
0.224944
-0.00158543
0.0496606
0.215452
-0.00112563
0.0484286
0.201776
0.0468283
0.184568
-3.19746e-08
0.0012843
0.0421771
0.172976
-2.51301e-09
0.00179461
0.043211
0.189464
0.00162858
0.0439755
0.202405
0.000951199
0.0444222
0.211309
-1.66038e-08
0.0446309
0.215841
-0.000951232
0.0446309
0.215841
-0.00162862
0.0444222
0.211309
-0.00179464
0.0439755
0.202405
-0.00128434
0.043211
0.189464
0.0421771
0.172976
-3.44254e-08
0.00140638
0.0355085
0.155743
-3.85639e-09
0.00196041
0.0360473
0.171456
0.0017784
0.0364227
0.183662
0.00103838
0.0366234
0.191999
-2.07536e-08
0.0367126
0.196224
-0.00103842
0.0367126
0.196224
-0.00177844
0.0366234
0.191999
-0.00196045
0.0364227
0.183662
-0.00140641
0.0360473
0.171456
0.0355085
0.155743
-3.48416e-08
0.00150766
0.0279749
0.135128
-5.53552e-09
0.00210827
0.0281217
0.15016
0.00191231
0.0282269
0.161739
0.00111562
0.0282747
0.169599
-2.49089e-08
0.0282939
0.173569
-0.00111567
0.0282939
0.173569
-0.00191235
0.0282747
0.169599
-0.00210831
0.0282269
0.161739
-0.00150769
0.0281218
0.15016
0.0279749
0.135128
-3.23137e-08
0.0016703
0.112686
-7.72201e-09
0.0203901
0.00230166
0.127175
0.0203373
0.00206781
0.138256
0.0203101
0.00119885
0.145737
0.020296
-2.7946e-08
0.149503
0.0202878
-0.0011989
0.149503
0.0202878
-0.00206786
0.145737
0.020296
-0.00230169
0.138256
0.0203101
-0.00167032
0.127175
0.0203373
0.112686
-2.70257e-08
0.0203901
-3.46925e-05
0.00293433
0.03874
-1.85854e-10
-4.83921e-05
0.00322529
0.0427791
-4.05527e-05
0.00347354
0.0461988
-2.26561e-05
0.0036558
0.0486838
-1.30442e-09
0.00375089
0.0499918
2.26536e-05
0.00375089
0.0499918
4.05498e-05
0.0036558
0.0486838
4.83886e-05
0.00347354
0.0461988
3.46886e-05
0.00322529
0.0427791
0.00293434
0.03874
-4.40787e-09
-2.36068e-05
0.00839876
0.102324
-2.35922e-10
-3.02655e-05
0.00916171
0.11279
-2.26531e-05
0.00980949
0.121583
-1.09336e-05
0.010276
0.127936
-3.28167e-09
0.010519
0.131269
1.09272e-05
0.010519
0.131269
2.26456e-05
0.010276
0.127936
3.02571e-05
0.00980949
0.121583
2.35975e-05
0.00916171
0.11279
0.00839876
0.102324
-1.044e-08
3.41968e-05
0.0140923
0.146962
-4.27309e-10
5.6894e-05
0.0152405
0.161668
5.84692e-05
0.0162063
0.173891
3.75466e-05
0.0168886
0.182655
-4.77416e-09
0.0172417
0.187229
-3.75565e-05
0.0172417
0.187229
-5.84805e-05
0.0168886
0.182655
-5.69064e-05
0.0162063
0.173891
-3.42108e-05
0.0152405
0.161668
0.0140923
0.146962
-1.56489e-08
0.00012129
0.0185349
0.173606
-6.61711e-10
0.000184554
0.0198583
0.190559
0.000177063
0.0209571
0.204466
0.000107614
0.0217184
0.214344
-6.2106e-09
0.022109
0.219471
-0.000107627
0.022109
0.219471
-0.000177078
0.0217184
0.214344
-0.00018457
0.0209571
0.204466
-0.000121308
0.0198583
0.190559
0.0185349
0.173606
-1.96843e-08
0.000224882
0.0210351
0.184784
-1.14789e-09
0.000331411
0.0223257
0.202501
0.000311589
0.0233799
0.216833
0.000186441
0.0240949
0.226911
-7.91453e-09
0.0244577
0.23211
-0.000186458
0.0244577
0.23211
-0.000311607
0.024095
0.226911
-0.00033143
0.02338
0.216833
-0.000224903
0.0223257
0.202501
0.0210351
0.184785
-2.29676e-08
0.000334079
0.0215135
0.183756
-1.87024e-09
0.000481885
0.0226261
0.201327
0.000447784
0.0235152
0.21535
0.000265753
0.024104
0.225117
-1.01618e-08
0.024399
0.230125
-0.000265774
0.024399
0.230125
-0.000447805
0.024104
0.225117
-0.000481908
0.0235152
0.21535
-0.000334103
0.0226261
0.201327
0.0215135
0.183756
-2.5182e-08
0.000439668
0.0202589
0.173791
-2.57904e-09
0.000625873
0.0211199
0.190784
0.000577576
0.0217876
0.204181
0.000341202
0.0222186
0.213431
-1.28749e-08
0.0224317
0.21815
-0.000341228
0.0224317
0.21815
-0.000577602
0.0222186
0.213431
-0.0006259
0.0217876
0.204181
-0.000439694
0.0211199
0.190784
0.0202589
0.173791
-2.63168e-08
0.000536474
0.0177325
0.157733
-3.12844e-09
0.000760789
0.0183224
0.174029
0.000700022
0.0187656
0.186745
0.000412506
0.0190456
0.195459
-1.5574e-08
0.0191828
0.199886
-0.000412537
0.0191828
0.199886
-0.000700052
0.0190457
0.195459
-0.000760818
0.0187656
0.186745
-0.000536501
0.0183224
0.174029
0.0177325
0.157733
-2.60447e-08
0.000631659
0.0144297
0.137799
-4.3039e-09
0.000897115
0.0147678
0.153449
0.00082317
0.015023
0.165556
0.000483654
0.0151847
0.1738
-1.79723e-08
0.015264
0.177971
-0.00048369
0.015264
0.177971
-0.000823204
0.0151847
0.1738
-0.000897145
0.015023
0.165556
-0.000631685
0.0147678
0.153449
0.0144297
0.137799
-2.46788e-08
0.000762305
0.115571
-6.85293e-09
0.0107826
0.00106568
0.130697
0.0109425
0.000966642
0.142305
0.0110723
0.000563598
0.150163
0.0111608
-1.98282e-08
0.154126
0.0112044
-0.000563637
0.154126
0.0112045
-0.000966677
0.150163
0.0111608
-0.00106571
0.142305
0.0110723
-0.000762327
0.130697
0.0109425
0.115571
-2.20219e-08
0.0107826
8.39764e-06
0.000667405
0.0380642
-1.33518e-10
7.6568e-06
0.000748522
0.0420313
6.17628e-06
0.000820343
0.0453799
3.31782e-06
0.000876016
0.0478106
-1.07915e-09
0.000905919
0.0490892
-3.32031e-06
0.000905919
0.0490892
-6.17875e-06
0.000876016
0.0478106
-7.65955e-06
0.000820343
0.0453799
-8.40047e-06
0.000748522
0.0420314
0.000667405
0.0380642
-3.34434e-09
3.12361e-05
0.00248305
0.100477
-2.45256e-10
3.90268e-05
0.00274218
0.110789
3.38862e-05
0.00296707
0.119441
1.94573e-05
0.00313402
0.125693
-2.74635e-09
0.00322263
0.128972
-1.94634e-05
0.00322263
0.128972
-3.38923e-05
0.00313402
0.125693
-3.90335e-05
0.00296707
0.119441
-3.1243e-05
0.00274218
0.110789
0.00248305
0.100477
-7.86762e-09
6.25846e-05
0.0047315
0.144651
-4.17853e-10
8.56835e-05
0.00516997
0.159217
7.69337e-05
0.00554472
0.171322
4.49384e-05
0.00581569
0.180005
-4.18175e-09
0.00595808
0.184539
-4.49471e-05
0.00595808
0.184539
-7.69427e-05
0.00581569
0.180005
-8.56935e-05
0.00554472
0.171322
-6.25954e-05
0.00516997
0.159217
0.0047315
0.144651
-1.18747e-08
0.000102668
0.00675707
0.171478
-6.81292e-10
0.000145689
0.00731111
0.188375
0.000133165
0.00777791
0.202246
7.83531e-05
0.00810834
0.212106
-5.47673e-09
0.0082802
0.217227
-7.83642e-05
0.0082802
0.217227
-0.000133177
0.00810834
0.212106
-0.000145702
0.00777792
0.202246
-0.000102682
0.00731111
0.188375
0.00675707
0.171478
-1.50553e-08
0.000149583
0.00815558
0.183236
-1.09359e-09
0.000214517
0.0087403
0.201007
0.00019748
0.00922545
0.215403
0.000116493
0.00956194
0.225539
-6.69815e-09
0.00973509
0.230772
-0.000116506
0.00973509
0.230772
-0.000197494
0.00956195
0.225539
-0.000214532
0.00922545
0.215403
-0.0001496
0.0087403
0.201007
0.00815559
0.183236
-1.78019e-08
0.000200602
0.00876088
0.18295
-1.55364e-09
0.000287564
0.00930149
0.200679
0.000265188
0.00974198
0.214856
0.000156493
0.0100412
0.224746
-8.05055e-09
0.0101935
0.229823
-0.000156509
0.0101935
0.229823
-0.000265205
0.0100412
0.224746
-0.000287581
0.00974198
0.214856
-0.00020062
0.0093015
0.200679
0.00876088
0.18295
-1.99201e-08
0.000252411
0.00859012
0.173709
-2.09677e-09
0.000360689
0.00903617
0.190941
0.000332605
0.00939172
0.204559
0.000196218
0.00962837
0.21398
-9.52945e-09
0.00974741
0.218792
-0.000196237
0.00974741
0.218792
-0.000332624
0.00962837
0.21398
-0.000360708
0.00939173
0.204559
-0.000252429
0.00903618
0.190941
0.00859012
0.173709
-2.11966e-08
0.000302409
0.00777842
0.158242
-2.8116e-09
0.000431699
0.00810519
0.174831
0.000397991
0.00836028
0.18781
0.00023466
0.00852732
0.196724
-1.09581e-08
0.0086106
0.201257
-0.000234682
0.0086106
0.201257
-0.000398012
0.00852732
0.196724
-0.000431719
0.00836028
0.18781
-0.000302427
0.00810519
0.174831
0.00777843
0.158242
-2.08924e-08
0.0003519
0.00651974
0.138706
-3.50454e-09
0.00050219
0.00672554
0.154679
0.000462003
0.00688612
0.16707
0.000271885
0.00699099
0.175526
-1.21928e-08
0.00704316
0.179811
-0.000271909
0.00704316
0.179811
-0.000462025
0.006991
0.175526
-0.00050221
0.00688612
0.16707
-0.000351917
0.00672555
0.154678
0.00651974
0.138706
-1.87198e-08
0.000410535
0.116664
-4.21495e-09
0.00501625
0.000577179
0.132128
0.0051276
0.000526593
0.144028
0.00521437
0.00030828
0.152099
0.00527379
-1.25437e-08
0.156174
0.0053035
-0.000308304
0.156174
0.0053035
-0.000526614
0.152099
0.00527379
-0.000577198
0.144028
0.00521438
-0.00041055
0.132128
0.0051276
0.116664
-1.51161e-08
0.00501626
-5.84358e-06
0.000378865
0.0376912
-9.55053e-11
-8.58712e-06
0.000414775
0.0416193
-7.36997e-06
0.000444247
0.0449345
-4.19008e-06
0.000465896
0.0473416
-1.0921e-09
0.000477116
0.0486079
4.18809e-06
0.000477116
0.0486079
7.36776e-06
0.000465896
0.0473416
8.58484e-06
0.000444247
0.0449345
5.84128e-06
0.000414774
0.0416193
0.000378865
0.0376912
-2.43894e-09
-6.61851e-06
0.00116748
0.0996955
-1.68415e-10
-9.82511e-06
0.00127771
0.109929
-8.47105e-06
0.00137001
0.118514
-4.71515e-06
0.00143715
0.124718
-2.58527e-09
0.00147222
0.127972
4.71028e-06
0.00147222
0.127972
8.46568e-06
0.00143715
0.124718
9.81976e-06
0.00137001
0.118514
6.61291e-06
0.00127771
0.109929
0.00116748
0.0996955
-5.79894e-09
4.48996e-07
0.00211267
0.143705
-2.68765e-10
1.087e-06
0.00230408
0.15819
1.49974e-06
0.00246535
0.170226
1.29386e-06
0.0025808
0.178862
-3.56875e-09
0.00264118
0.183371
-1.30101e-06
0.00264118
0.183371
-1.50748e-06
0.0025808
0.178862
-1.09487e-06
0.00246535
0.170226
-4.57292e-07
0.00230408
0.15819
0.00211267
0.143705
-8.79668e-09
1.37664e-05
0.00299651
0.17058
-3.89509e-10
2.08982e-05
0.00325015
0.187422
2.03211e-05
0.0034626
0.201249
1.24932e-05
0.00361289
0.211082
-4.3565e-09
0.00369103
0.21619
-1.25022e-05
0.00369103
0.21619
-2.03308e-05
0.00361289
0.211082
-2.09081e-05
0.0034626
0.201249
-1.37769e-05
0.00325015
0.187422
0.00299651
0.17058
-1.1175e-08
3.22025e-05
0.00365344
0.182547
-6.09271e-10
4.78964e-05
0.00393644
0.200305
4.54903e-05
0.004171
0.214697
2.74225e-05
0.00433459
0.224835
-5.16209e-09
0.00441902
0.230071
-2.74334e-05
0.00441902
0.230071
-4.55018e-05
0.00433459
0.224835
-4.79082e-05
0.004171
0.214697
-3.22147e-05
0.00393644
0.200305
0.00365345
0.182547
-1.31772e-08
5.4362e-05
0.00399194
0.182557
-8.50195e-10
7.96462e-05
0.00426993
0.20032
7.48904e-05
0.00449691
0.214535
4.47898e-05
0.00465275
0.224458
-6.102e-09
0.00473251
0.229554
-4.48024e-05
0.00473251
0.229554
-7.49035e-05
0.00465275
0.224458
-7.96595e-05
0.00449691
0.214535
-5.43755e-05
0.00426994
0.20032
0.00399194
0.182557
-1.46397e-08
7.87403e-05
0.00399065
0.173632
-1.22194e-09
0.000114241
0.00423566
0.19094
0.00010682
0.00443195
0.204632
6.36126e-05
0.00456461
0.214111
-7.08461e-09
0.00463195
0.218956
-6.3627e-05
0.00463195
0.218956
-0.000106835
0.00456462
0.214111
-0.000114256
0.00443195
0.204632
-7.87553e-05
0.00423566
0.19094
0.00399065
0.173632
-1.55592e-08
0.000104264
0.00368313
0.158445
-1.98067e-09
0.00015078
0.00387672
0.175143
0.00014053
0.00402917
0.188223
8.34404e-05
0.00413093
0.197214
-7.9296e-09
0.00418224
0.20179
-8.34561e-05
0.00418224
0.20179
-0.000140546
0.00413093
0.197214
-0.000150796
0.00402918
0.188223
-0.00010428
0.00387672
0.175143
0.00368313
0.158445
-1.57111e-08
0.000132173
0.00313813
0.139118
-3.08234e-09
0.000190604
0.00327304
0.155224
0.000176744
0.00337915
0.167734
0.000104508
0.00344972
0.17628
-8.73902e-09
0.00348519
0.180612
-0.000104525
0.00348519
0.180612
-0.000176761
0.00344973
0.17628
-0.00019062
0.00337915
0.167734
-0.000132187
0.00327304
0.155224
0.00313814
0.139118
-1.48929e-08
0.000167794
0.117195
-3.42656e-09
0.00243982
0.000237523
0.132809
0.00252276
0.000217807
0.144838
0.00258863
0.000127878
0.153005
0.0026337
-9.8538e-09
0.157131
0.00265639
-0.000127897
0.157131
0.00265639
-0.000217824
0.153005
0.0026337
-0.000237538
0.144838
0.00258863
-0.000167806
0.132809
0.00252276
0.117195
-1.24761e-08
0.00243982
1.28467e-06
8.63644e-05
0.0376035
-9.30405e-11
1.12648e-06
9.72168e-05
0.0415223
9.06462e-07
0.000106986
0.0448277
4.77955e-07
0.000114759
0.0472272
-8.64811e-10
0.000118971
0.0484894
-4.7983e-07
0.00011897
0.0484894
-9.08236e-07
0.000114759
0.0472272
-1.12815e-06
0.000106986
0.0448277
-1.28614e-06
9.72169e-05
0.0415223
8.63648e-05
0.0376035
-1.67792e-09
4.36337e-06
0.000356351
0.0994211
-1.52846e-10
5.20927e-06
0.000395585
0.10963
4.4449e-06
0.000430032
0.118192
2.51872e-06
0.000456049
0.124378
-2.09882e-09
0.000469971
0.127624
-2.52313e-06
0.000469971
0.127624
-4.44903e-06
0.000456049
0.124378
-5.21329e-06
0.000430032
0.118192
-4.36692e-06
0.000395585
0.10963
0.000356352
0.0994211
-3.91573e-09
8.97713e-06
0.000723927
0.143328
-2.79393e-10
1.20161e-05
0.000796972
0.157786
1.07026e-05
0.000860245
0.169798
6.22087e-06
0.000906823
0.178415
-3.0396e-09
0.00093154
0.182916
-6.22704e-06
0.00093154
0.182916
-1.07086e-05
0.000906823
0.178415
-1.2022e-05
0.000860245
0.169798
-8.98275e-06
0.000796972
0.157786
0.000723929
0.143328
-6.02672e-09
1.5578e-05
0.00109225
0.170196
-3.52876e-10
2.19131e-05
0.00119331
0.187019
1.99981e-05
0.00127984
0.200831
1.17616e-05
0.00134242
0.210655
-3.77241e-09
0.00137536
0.215758
-1.17691e-05
0.00137536
0.215758
-2.00056e-05
0.00134242
0.210655
-2.19207e-05
0.00127984
0.200831
-1.55854e-05
0.00119331
0.187019
0.00109225
0.170196
-7.70147e-09
2.41644e-05
0.00138639
0.182229
-5.46005e-10
3.46403e-05
0.00150293
0.199985
3.19658e-05
0.00160148
0.214378
1.88947e-05
0.00167162
0.224519
-4.4165e-09
0.00170823
0.229757
-1.89034e-05
0.00170823
0.229757
-3.19746e-05
0.00167162
0.224519
-3.46493e-05
0.00160148
0.214378
-2.41731e-05
0.00150293
0.199985
0.00138639
0.182229
-9.14185e-09
3.44547e-05
0.00155999
0.182349
-9.43746e-10
4.96483e-05
0.00167752
0.200131
4.60131e-05
0.00177547
0.214365
2.72468e-05
0.00184409
0.224304
-5.09785e-09
0.0018796
0.22941
-2.72569e-05
0.0018796
0.22941
-4.60232e-05
0.00184409
0.224304
-4.96584e-05
0.00177547
0.214365
-3.44646e-05
0.00167752
0.200131
0.00155999
0.182349
-1.02349e-08
4.59267e-05
0.00159565
0.17355
-1.3047e-09
6.6218e-05
0.00170147
0.190895
6.14609e-05
0.00178813
0.204624
3.6409e-05
0.00184792
0.214132
-5.82988e-09
0.00187859
0.218994
-3.64207e-05
0.00187859
0.218994
-6.14725e-05
0.00184792
0.214132
-6.62294e-05
0.00178813
0.204624
-4.59378e-05
0.00170147
0.190895
0.00159565
0.17355
-1.09293e-08
5.80578e-05
0.00150084
0.158482
-1.09387e-09
8.37486e-05
0.00158606
0.175233
7.77401e-05
0.00165469
0.188363
4.60281e-05
0.00170139
0.197393
-6.52642e-09
0.00172515
0.20199
-4.60411e-05
0.00172515
0.20199
-7.77529e-05
0.00170139
0.197393
-8.37612e-05
0.00165469
0.188363
-5.80698e-05
0.00158606
0.175233
0.00150084
0.158482
-1.10485e-08
7.08511e-05
0.0013011
0.139247
-4.66572e-10
0.000102
0.00136181
0.155417
9.44167e-05
0.00141014
0.167986
5.57791e-05
0.00144272
0.176577
-7.0609e-09
0.00145917
0.180934
-5.57932e-05
0.00145917
0.180934
-9.44306e-05
0.00144272
0.176577
-0.000102014
0.00141014
0.167986
-7.08642e-05
0.00136181
0.155417
0.0013011
0.139247
-1.05057e-08
8.4582e-05
0.117379
-7.05079e-10
0.00103261
0.000120275
0.133064
0.00107031
0.000110655
0.145158
0.00109979
6.51238e-05
0.153373
0.00112005
-6.98335e-09
0.157525
0.00113029
-6.51379e-05
0.157525
0.00113029
-0.000110669
0.153373
0.00112005
-0.00012029
0.145158
0.0010998
-8.45953e-05
0.133064
0.00107031
0.117379
-1.01763e-08
0.0010326
-1.09526e-06
5.96636e-05
0.0375449
-5.14928e-11
-1.59652e-06
6.50731e-05
0.0414577
-1.36816e-06
6.93689e-05
0.0447581
-7.7762e-07
7.25037e-05
0.0471541
-7.81607e-10
7.41189e-05
0.0484145
7.76166e-07
7.4119e-05
0.0484145
1.36673e-06
7.25037e-05
0.0471541
1.5952e-06
6.93686e-05
0.0447581
1.09413e-06
6.50728e-05
0.0414577
5.96636e-05
0.0375449
-1.14571e-09
-1.41681e-06
0.000189481
0.0992927
-1.19162e-10
-2.08787e-06
0.000207272
0.109488
-1.81476e-06
0.000221958
0.118039
-1.01991e-06
0.000232641
0.124218
-1.74915e-09
0.000238229
0.127458
1.01652e-06
0.000238229
0.127458
1.81136e-06
0.000232641
0.124218
2.08488e-06
0.000221958
0.118039
1.41405e-06
0.000207271
0.109488
0.00018948
0.0992927
-2.70257e-09
-3.59341e-07
0.000353003
0.143165
-1.62203e-10
-4.6863e-07
0.000385892
0.157608
-3.3363e-07
0.000413412
0.169606
-1.28808e-07
0.000433215
0.178215
-2.36247e-09
0.000443605
0.18271
1.2418e-07
0.000443605
0.18271
3.28875e-07
0.000433215
0.178215
4.63726e-07
0.000413412
0.169606
3.5496e-07
0.000385891
0.157608
0.000353002
0.143165
-4.23432e-09
1.84443e-06
0.000516278
0.170031
-2.14057e-10
2.83012e-06
0.000562561
0.186841
2.79732e-06
0.000601273
0.200643
1.74064e-06
0.000628881
0.21046
-2.82601e-09
0.000643311
0.21556
-1.74642e-06
0.000643311
0.21556
-2.80321e-06
0.000628881
0.21046
-2.83581e-06
0.000601272
0.200643
-1.85011e-06
0.00056256
0.186841
0.000516277
0.170031
-5.47529e-09
5.1114e-06
0.000649317
0.182091
-2.65491e-10
7.65401e-06
0.000704119
0.199841
7.32152e-06
0.000749662
0.21423
4.43507e-06
0.00078178
0.224369
-3.24382e-09
0.00079847
0.229607
-4.44175e-06
0.00079847
0.229607
-7.32845e-06
0.00078178
0.224369
-7.66102e-06
0.000749662
0.21423
-5.11838e-06
0.000704118
0.199841
0.000649317
0.182091
-6.64896e-09
9.27817e-06
0.000731377
0.182258
-2.03109e-10
1.37072e-05
0.000788453
0.200042
1.29761e-05
0.000835363
0.21428
7.79401e-06
0.000868029
0.224223
-3.65218e-09
0.000884889
0.229332
-7.80153e-06
0.000884889
0.229332
-1.2984e-05
0.00086803
0.224223
-1.37153e-05
0.000835362
0.21428
-9.28612e-06
0.000788452
0.200042
0.000731376
0.182258
-7.66634e-09
1.41418e-05
0.000752604
0.173515
-1.79662e-10
2.07235e-05
0.000805902
0.190871
1.95159e-05
0.000849085
0.204611
1.16719e-05
0.000878771
0.21413
-3.97472e-09
0.000893983
0.218996
-1.168e-05
0.000893984
0.218996
-1.95244e-05
0.000878772
0.21413
-2.07322e-05
0.000849085
0.204611
-1.41503e-05
0.000805902
0.190871
0.000752603
0.173515
-8.51418e-09
1.95492e-05
0.0007135
0.158501
-6.15855e-10
2.85629e-05
0.000758212
0.175272
2.68034e-05
0.00079398
0.188419
1.59779e-05
0.000818299
0.197464
-4.11138e-09
0.000830679
0.202069
-1.5986e-05
0.00083068
0.202069
-2.68114e-05
0.0008183
0.197464
-2.8571e-05
0.000793981
0.188419
-1.95571e-05
0.000758211
0.175272
0.0007135
0.158501
-8.93119e-09
2.57549e-05
0.0006228
0.139312
-1.63515e-09
3.74307e-05
0.000656212
0.155507
3.48996e-05
0.000682836
0.1681
2.07052e-05
0.000700813
0.176709
-4.21597e-09
0.000709915
0.181076
-2.07133e-05
0.000709916
0.181076
-3.49069e-05
0.000700814
0.176709
-3.74371e-05
0.000682836
0.1681
-2.57609e-05
0.000656212
0.155507
0.000622801
0.139312
-8.57595e-09
3.34936e-05
0.117473
-1.72638e-09
0.000494717
4.77354e-05
0.13319
0.000516813
4.40371e-05
0.14531
0.000534373
2.59552e-05
0.153546
0.00054645
-4.82249e-09
0.157708
0.000552567
-2.59641e-05
0.157708
0.000552567
-4.40442e-05
0.153546
0.00054645
-4.77407e-05
0.14531
0.000534373
-3.3498e-05
0.133189
0.000516813
0.117473
-7.06196e-09
0.000494718
1.04262e-07
1.48816e-05
0.03753
-2.12771e-11
4.56275e-08
1.67174e-05
0.041441
2.41894e-08
1.83901e-05
0.0447397
6.94563e-09
1.97167e-05
0.0471344
-5.83809e-10
2.04366e-05
0.0483941
-8.23832e-09
2.04366e-05
0.0483941
-2.53012e-08
1.97165e-05
0.0471344
-4.65796e-08
1.83901e-05
0.0447397
-1.04997e-07
1.67174e-05
0.041441
1.48819e-05
0.03753
-7.85789e-10
4.85667e-07
6.1311e-05
0.0992458
-4.90651e-11
5.1971e-07
6.81504e-05
0.109437
4.25631e-07
7.4181e-05
0.117983
2.35039e-07
7.87506e-05
0.124159
-1.3457e-09
8.11988e-05
0.127398
-2.37688e-07
8.11987e-05
0.127398
-4.28138e-07
7.87505e-05
0.124159
-5.21905e-07
7.4181e-05
0.117983
-4.87474e-07
6.81504e-05
0.109437
6.13118e-05
0.0992458
-1.83454e-09
1.21056e-06
0.000126247
0.143099
-1.04078e-10
1.57381e-06
0.000139375
0.157536
1.38761e-06
0.000150792
0.16953
8.03244e-07
0.00015925
0.178135
-1.85737e-09
0.00016375
0.182628
-8.06922e-07
0.00016375
0.182628
-1.39115e-06
0.00015925
0.178135
-1.57706e-06
0.000150792
0.16953
-1.21342e-06
0.000139375
0.157536
0.000126248
0.143099
-2.90319e-09
2.36517e-06
0.00019381
0.169961
-9.0869e-11
3.28969e-06
0.000212619
0.186767
2.99299e-06
0.000228809
0.200566
1.75909e-06
0.000240619
0.21038
-2.20753e-09
0.000246862
0.215478
-1.76348e-06
0.000246862
0.215478
-2.99732e-06
0.000240619
0.21038
-3.29379e-06
0.000228809
0.200566
-2.3689e-06
0.00021262
0.186767
0.000193812
0.169961
-3.78431e-09
3.96543e-06
0.00025068
0.18203
-9.65839e-11
5.6542e-06
0.000273203
0.199778
5.21276e-06
0.000292377
0.214166
3.0819e-06
0.000306173
0.224306
-2.5018e-09
0.000313417
0.229543
-3.08688e-06
0.000313417
0.229543
-5.21772e-06
0.000306173
0.224306
-5.65901e-06
0.000292377
0.214166
-3.96992e-06
0.000273203
0.199778
0.000250682
0.18203
-4.57747e-09
5.978e-06
0.000287527
0.182215
-2.1357e-10
8.59794e-06
0.000311153
0.200001
7.97043e-06
0.000331001
0.214242
4.72293e-06
0.000345089
0.224187
-2.80197e-09
0.000352432
0.229297
-4.7285e-06
0.000352432
0.229297
-7.97594e-06
0.000345089
0.224187
-8.60336e-06
0.000331001
0.214242
-5.98318e-06
0.000311154
0.200001
0.00028753
0.182215
-5.13975e-09
8.32054e-06
0.000299656
0.173494
-3.70699e-10
1.20064e-05
0.000321808
0.190857
1.11564e-05
0.000340125
0.204603
6.61547e-06
0.000352947
0.214126
-3.12658e-09
0.000359577
0.218996
-6.6217e-06
0.000359577
0.218996
-1.11626e-05
0.000352947
0.214126
-1.20125e-05
0.000340126
0.204603
-8.32651e-06
0.00032181
0.190857
0.00029966
0.173494
-5.44286e-09
1.08983e-05
0.000286885
0.158503
-2.63859e-10
1.57586e-05
0.000305525
0.175283
1.46507e-05
0.000320683
0.18844
8.68379e-06
0.000331146
0.197492
-3.45933e-09
0.000336509
0.202101
-8.69074e-06
0.000336509
0.202101
-1.46578e-05
0.000331146
0.197492