/*--------------------------------*- C++ -*----------------------------------*\
| =========                 |                                                 |
| \\      /  F ield         | OpenFOAM: The Open Source CFD Toolbox           |
|  \\    /   O peration     | Version:  2106                                  |
|   \\  /    A nd           | Website:  www.openfoam.com                      |
|    \\/     M anipulation  |                                                 |
\*---------------------------------------------------------------------------*/
FoamFile
{
    version     2.0;
    format      ascii;
    arch        "LSB;label=32;scalar=64";
    class       volVectorField;
    location    "0.81";
    object      U;
}
// * * * * * * * * * * * * * * * * * * * * * * * * * * * * * * * * * * * * * //

dimensions      [0 1 -1 0 0 0 0];

internalField   nonuniform List<vector> 
10000
(
(0.0630529 0.0742975 0.347841)
(0.0537766 0.0844967 0.362435)
(0.0401612 0.0937195 0.373889)
(0.0249145 0.100152 0.3818)
(0.00844341 0.103477 0.38582)
(-0.00844342 0.103477 0.38582)
(-0.0249145 0.100152 0.3818)
(-0.0401612 0.0937195 0.373889)
(-0.0537766 0.0844967 0.362435)
(-0.0630529 0.0742975 0.347841)
(0.173406 0.205727 0.733586)
(0.146377 0.233182 0.753389)
(0.109279 0.257329 0.768142)
(0.0676111 0.274045 0.778117)
(0.0228862 0.282666 0.783104)
(-0.0228862 0.282666 0.783104)
(-0.0676111 0.274045 0.778117)
(-0.109279 0.257329 0.768142)
(-0.146377 0.233182 0.753389)
(-0.173406 0.205727 0.733586)
(0.224371 0.26642 0.931025)
(0.187277 0.298375 0.946975)
(0.138921 0.326279 0.958124)
(0.0855257 0.345369 0.965484)
(0.0288791 0.35515 0.969093)
(-0.0288791 0.35515 0.969093)
(-0.0855258 0.345368 0.965484)
(-0.138921 0.326279 0.958124)
(-0.187277 0.298375 0.946975)
(-0.224371 0.26642 0.931025)
(0.239503 0.283931 1.03091)
(0.197949 0.314041 1.04149)
(0.14593 0.340386 1.04821)
(0.0894251 0.358207 1.05251)
(0.0301274 0.36728 1.05456)
(-0.0301274 0.36728 1.05456)
(-0.0894251 0.358207 1.05251)
(-0.14593 0.340386 1.04821)
(-0.197949 0.314041 1.04149)
(-0.239503 0.283931 1.03091)
(0.237546 0.28111 1.07963)
(0.194719 0.307309 1.08563)
(0.142794 0.330371 1.08878)
(0.0871521 0.345836 1.09067)
(0.029305 0.353662 1.09153)
(-0.0293051 0.353662 1.09153)
(-0.0871522 0.345836 1.09067)
(-0.142794 0.330371 1.08878)
(-0.194719 0.307309 1.08563)
(-0.237546 0.28111 1.07963)
(0.22645 0.267491 1.10087)
(0.184219 0.289061 1.10347)
(0.134454 0.308201 1.10412)
(0.0817591 0.320963 1.10437)
(0.0274433 0.327383 1.10442)
(-0.0274434 0.327383 1.10442)
(-0.0817592 0.320963 1.10437)
(-0.134454 0.308201 1.10412)
(-0.184219 0.289061 1.10347)
(-0.22645 0.267491 1.10087)
(0.209985 0.247409 1.10753)
(0.169531 0.264109 1.10781)
(0.123179 0.279076 1.10688)
(0.0746405 0.289036 1.10611)
(0.0250118 0.294025 1.10568)
(-0.025012 0.294025 1.10568)
(-0.0746406 0.289036 1.10611)
(-0.123179 0.279076 1.10688)
(-0.169531 0.264109 1.10781)
(-0.209985 0.247409 1.10753)
(0.190499 0.22361 1.10683)
(0.152614 0.235485 1.10564)
(0.11042 0.246266 1.10383)
(0.0666912 0.253476 1.1025)
(0.0223127 0.257088 1.10181)
(-0.0223129 0.257088 1.10181)
(-0.0666913 0.253476 1.1025)
(-0.11042 0.246266 1.10383)
(-0.152614 0.235484 1.10564)
(-0.190499 0.22361 1.10683)
(0.169537 0.197894 1.10281)
(0.134852 0.205133 1.10073)
(0.0971729 0.211857 1.0985)
(0.0585068 0.216484 1.09693)
(0.0195447 0.218822 1.09614)
(-0.0195448 0.218822 1.09614)
(-0.0585069 0.216484 1.09693)
(-0.097173 0.211857 1.0985)
(-0.134852 0.205133 1.10073)
(-0.169537 0.197894 1.10281)
(0.148271 0.171927 1.09772)
(0.117453 0.17303 1.09517)
(0.0840492 0.17633 1.09279)
(0.0504186 0.178736 1.09119)
(0.0168128 0.179972 1.09039)
(-0.016813 0.179972 1.09039)
(-0.0504188 0.178736 1.09119)
(-0.0840494 0.17633 1.09279)
(-0.117453 0.17303 1.09517)
(-0.148271 0.171927 1.09772)
(0.0112843 0.0144144 0.268642)
(0.00948037 0.0177313 0.281002)
(0.00715848 0.0203957 0.291123)
(0.00453152 0.0222223 0.298168)
(0.00155046 0.023174 0.301774)
(-0.00155047 0.023174 0.301774)
(-0.00453154 0.0222223 0.298168)
(-0.00715849 0.0203957 0.291123)
(-0.00948038 0.0177313 0.281002)
(-0.0112843 0.0144144 0.268642)
(0.0548476 0.0663631 0.634513)
(0.0470972 0.0798433 0.656631)
(0.0360447 0.0913941 0.674369)
(0.0227876 0.0995786 0.686568)
(0.00779811 0.103875 0.69276)
(-0.00779816 0.103875 0.69276)
(-0.0227877 0.0995786 0.686568)
(-0.0360448 0.0913941 0.674369)
(-0.0470973 0.0798433 0.656631)
(-0.0548477 0.0663631 0.634513)
(0.0985551 0.117718 0.883423)
(0.084085 0.139223 0.907432)
(0.0640137 0.157678 0.926264)
(0.0402274 0.170704 0.939058)
(0.0137253 0.177506 0.945501)
(-0.0137254 0.177506 0.945501)
(-0.0402275 0.170704 0.939058)
(-0.0640138 0.157678 0.926264)
(-0.084085 0.139223 0.907432)
(-0.0985552 0.117718 0.883423)
(0.134918 0.159964 1.0525)
(0.114132 0.186301 1.07467)
(0.0863302 0.208794 1.09163)
(0.0539441 0.224556 1.10302)
(0.0183532 0.232742 1.10871)
(-0.0183533 0.232742 1.10871)
(-0.0539442 0.224556 1.10302)
(-0.0863303 0.208794 1.09163)
(-0.114132 0.1863 1.07467)
(-0.134918 0.159964 1.0525)
(0.160952 0.189747 1.16642)
(0.134991 0.217832 1.18518)
(0.101469 0.241659 1.19915)
(0.0630776 0.258235 1.20841)
(0.0214055 0.266796 1.21299)
(-0.0214057 0.266796 1.21299)
(-0.0630778 0.258235 1.20841)
(-0.101469 0.241659 1.19915)
(-0.134991 0.217832 1.18518)
(-0.160953 0.189747 1.16642)
(0.176704 0.207241 1.24204)
(0.14695 0.234569 1.25697)
(0.109793 0.257553 1.26776)
(0.0679265 0.273435 1.27481)
(0.0229962 0.281595 1.27827)
(-0.0229964 0.281595 1.27827)
(-0.0679267 0.273435 1.27481)
(-0.109793 0.257553 1.26776)
(-0.14695 0.234569 1.25697)
(-0.176704 0.207241 1.24204)
(0.183241 0.2138 1.29127)
(0.151086 0.238458 1.30258)
(0.112222 0.258952 1.31049)
(0.0691164 0.273028 1.31556)
(0.0233466 0.280227 1.31803)
(-0.0233468 0.280227 1.31803)
(-0.0691166 0.273028 1.31556)
(-0.112222 0.258952 1.31049)
(-0.151086 0.238458 1.30258)
(-0.183241 0.2138 1.29127)
(0.181915 0.211068 1.32253)
(0.148695 0.231665 1.33073)
(0.10982 0.248507 1.33624)
(0.0673492 0.26002 1.3397)
(0.0227014 0.265889 1.34136)
(-0.0227016 0.265889 1.34136)
(-0.0673495 0.26002 1.3397)
(-0.109821 0.248507 1.33624)
(-0.148695 0.231665 1.33073)
(-0.181915 0.211068 1.32253)
(0.174196 0.200734 1.34171)
(0.141206 0.216331 1.3474)
(0.1037 0.228723 1.35105)
(0.063324 0.237212 1.35328)
(0.0212993 0.241535 1.35433)
(-0.0212996 0.241535 1.35433)
(-0.0633243 0.237212 1.35328)
(-0.1037 0.228723 1.35105)
(-0.141207 0.216331 1.3474)
(-0.174196 0.200734 1.34171)
(0.161663 0.185625 1.35295)
(0.130178 0.193611 1.35678)
(0.0948179 0.201204 1.35906)
(0.0576089 0.20644 1.36038)
(0.0193295 0.209105 1.36098)
(-0.0193299 0.209105 1.36098)
(-0.0576093 0.20644 1.36038)
(-0.0948183 0.201204 1.35906)
(-0.130178 0.193611 1.35678)
(-0.161663 0.185625 1.35294)
(0.00113095 0.00126304 0.158894)
(0.00114218 0.00161292 0.16726)
(0.000890379 0.00202436 0.174246)
(0.000596006 0.00232912 0.179191)
(0.000207682 0.002498 0.18175)
(-0.000207701 0.002498 0.18175)
(-0.000596024 0.00232912 0.179191)
(-0.000890397 0.00202435 0.174246)
(-0.0011422 0.00161291 0.16726)
(-0.00113096 0.00126303 0.158894)
(0.0181613 0.0210741 0.445154)
(0.0163325 0.0257103 0.465517)
(0.0127825 0.0300731 0.482241)
(0.00820967 0.0332955 0.493978)
(0.00282888 0.0350266 0.50002)
(-0.00282894 0.0350266 0.50002)
(-0.00820973 0.0332955 0.493978)
(-0.0127826 0.0300731 0.482241)
(-0.0163325 0.0257103 0.465517)
(-0.0181613 0.021074 0.445154)
(0.041397 0.0481855 0.690662)
(0.0365619 0.057891 0.718457)
(0.0284046 0.0667436 0.740919)
(0.0180941 0.0732168 0.756554)
(0.00621249 0.076664 0.764561)
(-0.00621259 0.076664 0.764561)
(-0.0180942 0.0732168 0.756554)
(-0.0284047 0.0667436 0.740919)
(-0.036562 0.0578909 0.718457)
(-0.041397 0.0481855 0.690662)
(0.0664651 0.0774261 0.894877)
(0.0579331 0.0917171 0.926302)
(0.0446755 0.104503 0.951275)
(0.0282767 0.113754 0.96851)
(0.00967927 0.118645 0.977292)
(-0.00967942 0.118645 0.977292)
(-0.0282769 0.113754 0.96851)
(-0.0446757 0.104503 0.951275)
(-0.0579332 0.091717 0.926302)
(-0.0664653 0.0774261 0.894877)
(0.0888586 0.103395 1.06126)
(0.0765732 0.120791 1.09351)
(0.0586314 0.136127 1.1187)
(0.0369015 0.147115 1.13593)
(0.0125973 0.152887 1.14467)
(-0.0125975 0.152887 1.14467)
(-0.0369016 0.147115 1.13593)
(-0.0586316 0.136127 1.1187)
(-0.0765734 0.120791 1.09351)
(-0.0888587 0.103395 1.06126)
(0.106318 0.12339 1.19475)
(0.090658 0.142128 1.22592)
(0.0689413 0.158419 1.24985)
(0.0431645 0.169989 1.2661)
(0.0146979 0.176031 1.27429)
(-0.0146982 0.176031 1.27429)
(-0.0431648 0.169989 1.2661)
(-0.0689415 0.158419 1.24985)
(-0.0906582 0.142128 1.22592)
(-0.106318 0.12339 1.19475)
(0.117986 0.136439 1.30052)
(0.0995866 0.154818 1.32945)
(0.0752232 0.170559 1.3513)
(0.0468632 0.18165 1.36602)
(0.0159184 0.187409 1.37341)
(-0.0159187 0.187409 1.37341)
(-0.0468635 0.18165 1.36602)
(-0.0752235 0.170559 1.3513)
(-0.0995868 0.154818 1.32945)
(-0.117986 0.136439 1.30052)
(0.123738 0.14243 1.38338)
(0.103392 0.158962 1.40948)
(0.0775799 0.172872 1.4289)
(0.0480966 0.182598 1.44188)
(0.016298 0.187625 1.44836)
(-0.0162984 0.187625 1.44836)
(-0.0480969 0.182598 1.44188)
(-0.0775802 0.172872 1.4289)
(-0.103392 0.158962 1.40948)
(-0.123738 0.14243 1.38338)
(0.123978 0.141804 1.44749)
(0.102571 0.155301 1.47063)
(0.0764302 0.166327 1.4876)
(0.0471401 0.174004 1.49883)
(0.015933 0.177955 1.5044)
(-0.0159334 0.177955 1.5044)
(-0.0471405 0.174004 1.49883)
(-0.0764305 0.166327 1.4876)
(-0.102572 0.155301 1.47063)
(-0.123978 0.141804 1.44749)
(0.119529 0.136391 1.49621)
(0.0979258 0.144502 1.51691)
(0.07225 0.151838 1.53152)
(0.0442855 0.15692 1.54104)
(0.0149226 0.15952 1.54573)
(-0.014923 0.15952 1.54573)
(-0.0442859 0.15692 1.54104)
(-0.0722504 0.151838 1.53152)
(-0.0979262 0.144502 1.51691)
(-0.119529 0.136391 1.49621)
(0.000718915 0.000944157 0.138995)
(0.000561953 0.00118384 0.145856)
(0.000384872 0.00135382 0.151443)
(0.000238692 0.00145443 0.155365)
(7.99294e-05 0.0015048 0.157388)
(-7.99471e-05 0.0015048 0.157388)
(-0.000238709 0.00145443 0.155365)
(-0.000384888 0.00135381 0.151443)
(-0.000561968 0.00118383 0.145856)
(-0.000718928 0.000944146 0.138995)
(0.00709719 0.00848606 0.398556)
(0.00616312 0.0104598 0.416765)
(0.00473949 0.0121678 0.431507)
(0.00302384 0.0133941 0.441824)
(0.0010385 0.0140465 0.447134)
(-0.00103855 0.0140465 0.447134)
(-0.0030239 0.0133941 0.441824)
(-0.00473955 0.0121678 0.431507)
(-0.00616317 0.0104598 0.416765)
(-0.00709724 0.00848603 0.398556)
(0.0174064 0.0205522 0.633537)
(0.0151849 0.0250237 0.660417)
(0.0117523 0.0289481 0.68201)
(0.00748733 0.0317974 0.69706)
(0.00257131 0.0333132 0.704785)
(-0.00257141 0.0333132 0.704785)
(-0.00748743 0.0317974 0.69706)
(-0.0117524 0.0289481 0.68201)
(-0.015185 0.0250237 0.660417)
(-0.0174065 0.0205521 0.633537)
(0.0298651 0.035063 0.842003)
(0.0259687 0.0421812 0.87485)
(0.0200722 0.0484278 0.900987)
(0.0127473 0.0529586 0.919115)
(0.00437155 0.0553614 0.92839)
(-0.0043717 0.0553614 0.92839)
(-0.0127474 0.0529585 0.919115)
(-0.0200723 0.0484278 0.900987)
(-0.0259688 0.0421811 0.87485)
(-0.0298652 0.0350629 0.842003)
(0.0424058 0.0495642 1.02391)
(0.0366459 0.0588741 1.06028)
(0.0282113 0.0669976 1.08892)
(0.0178454 0.0728604 1.10868)
(0.00610825 0.0759564 1.11875)
(-0.00610844 0.0759564 1.11875)
(-0.0178456 0.0728603 1.10868)
(-0.0282115 0.0669976 1.08892)
(-0.0366461 0.058874 1.06028)
(-0.0424059 0.0495642 1.02391)
(0.0535255 0.0622842 1.18043)
(0.0459044 0.0729806 1.21828)
(0.0351525 0.082227 1.24775)
(0.0221389 0.088856 1.26797)
(0.00756161 0.0923398 1.27825)
(-0.00756185 0.0923398 1.27825)
(-0.0221391 0.088856 1.26797)
(-0.0351527 0.082227 1.24775)
(-0.0459046 0.0729805 1.21828)
(-0.0535256 0.0622841 1.18043)
(0.0622307 0.0720736 1.31337)
(0.052915 0.0831952 1.35109)
(0.0402787 0.0926871 1.38012)
(0.0252498 0.0994415 1.39994)
(0.00860436 0.102973 1.40997)
(-0.00860465 0.102973 1.40997)
(-0.0252501 0.0994415 1.39994)
(-0.0402789 0.0926871 1.38012)
(-0.0529153 0.0831952 1.35109)
(-0.0622309 0.0720736 1.31337)
(0.0679253 0.0782454 1.4248)
(0.0572272 0.0888102 1.46119)
(0.0432813 0.0976791 1.48891)
(0.0270007 0.103939 1.50771)
(0.00917868 0.107195 1.5172)
(-0.00917901 0.107195 1.5172)
(-0.027001 0.103939 1.50771)
(-0.0432816 0.0976791 1.48891)
(-0.0572275 0.0888101 1.46119)
(-0.0679255 0.0782454 1.4248)
(0.0704125 0.0805345 1.5167)
(0.058757 0.089656 1.55109)
(0.0441224 0.0970986 1.57697)
(0.0273768 0.102314 1.59438)
(0.00928119 0.105012 1.60311)
(-0.00928156 0.105012 1.60311)
(-0.0273772 0.102314 1.59438)
(-0.0441227 0.0970986 1.57697)
(-0.0587573 0.089656 1.55109)
(-0.0704127 0.0805344 1.5167)
(0.0698746 0.0797358 1.59079)
(0.0576965 0.0857972 1.62344)
(0.0428851 0.0910652 1.64711)
(0.0264321 0.0947218 1.6628)
(0.0089312 0.0965986 1.67062)
(-0.00893159 0.0965986 1.67062)
(-0.0264325 0.0947218 1.6628)
(-0.0428854 0.0910652 1.6471)
(-0.0576968 0.0857971 1.62344)
(-0.0698749 0.0797358 1.59079)
(0.000131501 0.000143841 0.127983)
(0.000121809 0.000188536 0.134375)
(9.00041e-05 0.000234323 0.139572)
(6.15683e-05 0.000266417 0.143225)
(2.12625e-05 0.000284611 0.145111)
(-2.12777e-05 0.00028461 0.145111)
(-6.15831e-05 0.000266413 0.143225)
(-9.00181e-05 0.000234318 0.139572)
(-0.000121822 0.000188528 0.134375)
(-0.000131512 0.000143832 0.127983)
(0.00253141 0.0029281 0.371146)
(0.0022642 0.00363001 0.388532)
(0.00177349 0.00427648 0.402616)
(0.00114623 0.00475747 0.412499)
(0.000395784 0.00501857 0.417593)
(-0.000395833 0.00501856 0.417593)
(-0.00114628 0.00475746 0.412499)
(-0.00177354 0.00427646 0.402616)
(-0.00226424 0.00362999 0.388532)
(-0.00253144 0.00292808 0.371146)
(0.00689549 0.0079994 0.596582)
(0.00612633 0.00980657 0.62297)
(0.004802 0.0114477 0.644234)
(0.00308596 0.0126687 0.659113)
(0.00106396 0.0133268 0.666768)
(-0.00106405 0.0133268 0.666768)
(-0.00308604 0.0126687 0.659113)
(-0.00480208 0.0114477 0.644234)
(-0.00612641 0.00980654 0.62297)
(-0.00689555 0.00799936 0.596582)
(0.0126554 0.0146838 0.802773)
(0.0111703 0.0178051 0.836085)
(0.00873023 0.0206133 0.862743)
(0.00558656 0.022692 0.881332)
(0.00192277 0.0238067 0.890875)
(-0.0019229 0.0238067 0.890875)
(-0.00558668 0.022692 0.881332)
(-0.00873035 0.0206133 0.862743)
(-0.0111704 0.0178051 0.836085)
(-0.0126555 0.0146838 0.802773)
(0.0189289 0.0219273 0.988976)
(0.0165869 0.0262759 1.02718)
(0.0129058 0.0301522 1.05751)
(0.00822376 0.0330024 1.07857)
(0.00282494 0.0345234 1.08936)
(-0.00282511 0.0345234 1.08936)
(-0.00822392 0.0330024 1.07857)
(-0.0129059 0.0301521 1.05751)
(-0.0165871 0.0262759 1.02718)
(-0.018929 0.0219273 0.988976)
(0.0249401 0.0288091 1.15507)
(0.021681 0.0340748 1.19628)
(0.0167781 0.0387185 1.2287)
(0.010644 0.0421075 1.25113)
(0.00364853 0.0439067 1.26258)
(-0.00364874 0.0439067 1.26258)
(-0.0106442 0.0421074 1.25113)
(-0.0167783 0.0387184 1.2287)
(-0.0216812 0.0340748 1.19628)
(-0.0249402 0.028809 1.15507)
(0.0300684 0.0346023 1.30135)
(0.0259127 0.0403306 1.34389)
(0.0199305 0.0453166 1.37705)
(0.0125845 0.0489259 1.39989)
(0.0043037 0.0508318 1.41153)
(-0.00430395 0.0508318 1.41153)
(-0.0125848 0.0489259 1.39989)
(-0.0199308 0.0453166 1.37705)
(-0.0259129 0.0403306 1.34389)
(-0.0300686 0.0346022 1.30135)
(0.0338567 0.0387712 1.42839)
(0.0289055 0.0444376 1.47085)
(0.0220842 0.0492902 1.50366)
(0.0138741 0.0527708 1.52614)
(0.00473269 0.054598 1.53754)
(-0.00473297 0.054598 1.53754)
(-0.0138744 0.0527708 1.52614)
(-0.0220844 0.0492902 1.50366)
(-0.0289058 0.0444375 1.47085)
(-0.0338569 0.0387711 1.42839)
(0.0360583 0.0410075 1.53675)
(0.0304775 0.0460961 1.57819)
(0.0231062 0.0503305 1.60985)
(0.0144313 0.0533375 1.63136)
(0.00490814 0.0549049 1.64222)
(-0.00490846 0.0549049 1.64222)
(-0.0144316 0.0533375 1.63136)
(-0.0231065 0.0503305 1.60985)
(-0.0304777 0.0460961 1.57819)
(-0.0360585 0.0410074 1.53675)
(0.0366446 0.0416208 1.62685)
(0.0305946 0.0452168 1.66741)
(0.0229365 0.0483278 1.69723)
(0.0142195 0.0505053 1.71721)
(0.00481826 0.0516291 1.72721)
(-0.0048186 0.0516291 1.72721)
(-0.0142199 0.0505053 1.71721)
(-0.0229368 0.0483278 1.69723)
(-0.0305948 0.0452168 1.66741)
(-0.0366448 0.0416208 1.62685)
(8.01966e-05 0.000108231 0.124996)
(5.61573e-05 0.000137297 0.131188)
(3.44345e-05 0.000154133 0.136191)
(2.1065e-05 0.000162457 0.139702)
(6.84251e-06 0.000166442 0.141512)
(-6.85463e-06 0.000166441 0.141512)
(-2.10771e-05 0.000162454 0.139702)
(-3.44455e-05 0.000154129 0.136191)
(-5.61677e-05 0.000137291 0.131188)
(-8.02056e-05 0.000108224 0.124996)
(0.00104701 0.00125034 0.362593)
(0.00089939 0.00155083 0.379531)
(0.000687843 0.00180374 0.393194)
(0.000439275 0.00198529 0.402771)
(0.000150779 0.00208238 0.407705)
(-0.000150819 0.00208238 0.407705)
(-0.000439315 0.00198528 0.402771)
(-0.000687879 0.00180373 0.393194)
(-0.000899423 0.00155081 0.379531)
(-0.00104704 0.00125032 0.362593)
(0.00288564 0.00339657 0.584086)
(0.00252018 0.0041779 0.610041)
(0.00195676 0.00485967 0.630903)
(0.00125197 0.00536012 0.645499)
(0.000430779 0.00562855 0.653009)
(-0.00043085 0.00562854 0.653009)
(-0.00125204 0.00536011 0.645499)
(-0.00195683 0.00485966 0.630903)
(-0.00252024 0.00417788 0.610041)
(-0.00288569 0.00339654 0.584086)
(0.00540914 0.0063275 0.788741)
(0.00473734 0.00771402 0.82194)
(0.00368957 0.00893605 0.848488)
(0.00235852 0.00983665 0.867017)
(0.000811463 0.0103192 0.876536)
(-0.000811566 0.0103192 0.876536)
(-0.00235862 0.00983663 0.867017)
(-0.00368967 0.00893603 0.848488)
(-0.00473742 0.00771399 0.821939)
(-0.00540921 0.00632746 0.788741)
(0.00828986 0.00965253 0.976056)
(0.00724393 0.0116465 1.01473)
(0.00563473 0.0134043 1.04546)
(0.00359347 0.0146971 1.06685)
(0.00123507 0.0153878 1.07781)
(-0.00123521 0.0153878 1.07781)
(-0.0035936 0.014697 1.06685)
(-0.00563485 0.0134043 1.04546)
(-0.00724404 0.0116465 1.01473)
(-0.00828996 0.00965249 0.976056)
(0.011194 0.0129764 1.14576)
(0.00973323 0.0154696 1.18819)
(0.00754457 0.0176556 1.22166)
(0.00479553 0.0192553 1.24488)
(0.00164559 0.0201067 1.25677)
(-0.00164576 0.0201067 1.25677)
(-0.0047957 0.0192553 1.24488)
(-0.00754472 0.0176556 1.22166)
(-0.00973337 0.0154696 1.18819)
(-0.0111941 0.0129764 1.14576)
(0.0138132 0.0159377 1.29775)
(0.0119292 0.0187351 1.34231)
(0.00920112 0.021164 1.37721)
(0.00582491 0.0229293 1.40134)
(0.00199481 0.0238644 1.41365)
(-0.00199501 0.0238644 1.41365)
(-0.0058251 0.0229293 1.40134)
(-0.0092013 0.0211639 1.37721)
(-0.0119294 0.0187351 1.34231)
(-0.0138134 0.0159377 1.29775)
(0.0158875 0.0182299 1.43202)
(0.0136093 0.0210807 1.47728)
(0.010434 0.0235218 1.51246)
(0.00657444 0.0252807 1.53667)
(0.00224613 0.026207 1.54898)
(-0.00224636 0.026207 1.54898)
(-0.00657467 0.0252806 1.53667)
(-0.0104342 0.0235218 1.51246)
(-0.0136095 0.0210807 1.47728)
(-0.0158876 0.0182298 1.43201)
(0.017245 0.0196386 1.54847)
(0.0146348 0.0222768 1.59341)
(0.0111374 0.0244762 1.62797)
(0.00697733 0.0260442 1.65155)
(0.00237675 0.0268638 1.66349)
(-0.002377 0.0268638 1.66349)
(-0.00697758 0.0260442 1.65155)
(-0.0111377 0.0244762 1.62797)
(-0.014635 0.0222768 1.59341)
(-0.0172452 0.0196386 1.54847)
(0.0178209 0.0202641 1.64683)
(0.0149379 0.0222116 1.69154)
(0.0112425 0.0238816 1.72463)
(0.00699061 0.0250539 1.7469)
(0.00237229 0.0256603 1.75809)
(-0.00237256 0.0256603 1.75809)
(-0.00699087 0.0250539 1.7469)
(-0.0112428 0.0238816 1.72463)
(-0.0149381 0.0222116 1.69154)
(-0.0178211 0.020264 1.64683)
(1.23184e-05 1.51613e-05 0.123488)
(8.3782e-06 2.07246e-05 0.129613)
(4.69526e-06 2.43748e-05 0.134557)
(3.45941e-06 2.64668e-05 0.138029)
(1.15965e-06 2.76816e-05 0.139819)
(-1.16887e-06 2.76809e-05 0.139819)
(-3.46844e-06 2.64648e-05 0.138029)
(-4.70381e-06 2.43715e-05 0.134557)
(-8.38627e-06 2.07199e-05 0.129613)
(-1.23252e-05 1.51557e-05 0.123488)
(0.000363549 0.000424824 0.358334)
(0.000317374 0.000530296 0.3751)
(0.000245821 0.000622302 0.388617)
(0.000158687 0.000690289 0.398096)
(5.47242e-05 0.000727234 0.402979)
(-5.4755e-05 0.000727232 0.402979)
(-0.000158717 0.000690283 0.398096)
(-0.000245849 0.000622293 0.388617)
(-0.0003174 0.000530283 0.3751)
(-0.000363571 0.000424809 0.358333)
(0.00108585 0.00126343 0.57772)
(0.000957739 0.00156272 0.603487)
(0.000749707 0.00182896 0.624196)
(0.000482647 0.00202781 0.638693)
(0.000166543 0.00213546 0.646153)
(-0.000166597 0.00213545 0.646153)
(-0.0004827 0.0020278 0.638693)
(-0.000749757 0.00182894 0.624196)
(-0.000957785 0.0015627 0.603487)
(-0.00108589 0.00126341 0.57772)
(0.00212926 0.00247094 0.781243)
(0.00188012 0.00302951 0.814361)
(0.0014744 0.00352871 0.840858)
(0.00094724 0.00390166 0.859367)
(0.000326688 0.00410298 0.868881)
(-0.000326768 0.00410298 0.868881)
(-0.000947317 0.00390165 0.859367)
(-0.00147447 0.00352869 0.840857)
(-0.00188018 0.00302949 0.81436)
(-0.00212932 0.00247092 0.781242)
(0.00337208 0.00390142 0.968573)
(0.00296973 0.00473564 1.0074)
(0.00232532 0.00548001 1.03829)
(0.00149001 0.00603423 1.05981)
(0.000513307 0.0063324 1.07086)
(-0.000513412 0.0063324 1.07086)
(-0.00149012 0.00603422 1.05981)
(-0.00232542 0.00547999 1.03829)
(-0.00296982 0.00473562 1.0074)
(-0.00337216 0.00390139 0.968572)
(0.0046762 0.00539085 1.13946)
(0.00409824 0.00646722 1.18237)
(0.00319784 0.00742206 1.2163)
(0.00204232 0.00812908 1.23987)
(0.000702463 0.0085079 1.25195)
(-0.000702594 0.0085079 1.25195)
(-0.00204245 0.00812907 1.23987)
(-0.00319797 0.00742205 1.2163)
(-0.00409835 0.0064672 1.18237)
(-0.0046763 0.00539082 1.13946)
(0.00590236 0.00677548 1.2937)
(0.00513891 0.00801673 1.33914)
(0.0039904 0.00910733 1.37482)
(0.00253828 0.00990907 1.39954)
(0.00087131 0.0103365 1.41217)
(-0.000871466 0.0103365 1.41217)
(-0.00253843 0.00990906 1.39954)
(-0.00399054 0.00910731 1.37482)
(-0.00513904 0.00801671 1.33914)
(-0.00590247 0.00677545 1.2937)
(0.00692339 0.00790527 1.43107)
(0.00598012 0.00920203 1.47762)
(0.00461567 0.010326 1.51391)
(0.00292205 0.0111446 1.53895)
(0.00100061 0.0115783 1.55171)
(-0.00100079 0.0115783 1.55171)
(-0.00292223 0.0111446 1.53895)
(-0.00461583 0.010326 1.51391)
(-0.00598027 0.00920201 1.47762)
(-0.00692352 0.00790524 1.43107)
(0.00764719 0.0086667 1.55122)
(0.00654319 0.00989612 1.59782)
(0.00501154 0.0109329 1.63379)
(0.00315361 0.0116787 1.6584)
(0.00107657 0.0120705 1.67088)
(-0.00107676 0.0120705 1.67088)
(-0.0031538 0.0116787 1.6584)
(-0.00501173 0.0109329 1.63379)
(-0.00654336 0.00989611 1.59782)
(-0.00764733 0.00866669 1.55122)
(0.00802694 0.00909264 1.6535)
(0.00677662 0.0100318 1.70025)
(0.00513 0.0108356 1.73498)
(0.00320253 0.0114033 1.75842)
(0.00108887 0.011698 1.77021)
(-0.00108908 0.011698 1.77021)
(-0.00320274 0.0114033 1.75842)
(-0.0051302 0.0108356 1.73498)
(-0.0067768 0.0100318 1.70025)
(-0.0080271 0.00909263 1.6535)
(7.78045e-06 1.23906e-05 0.12309)
(3.21201e-06 1.61648e-05 0.129188)
(6.17107e-07 1.72802e-05 0.134105)
(1.37754e-07 1.73006e-05 0.137557)
(-3.61949e-08 1.72075e-05 0.139336)
(2.93866e-08 1.7207e-05 0.139336)
(-1.44389e-07 1.72991e-05 0.137557)
(-6.23377e-07 1.72777e-05 0.134105)
(-3.21799e-06 1.61614e-05 0.129188)
(-7.78539e-06 1.23865e-05 0.12309)
(0.000139497 0.000169542 0.357032)
(0.000115598 0.000211992 0.37372)
(8.66186e-05 0.0002454 0.387163)
(5.49482e-05 0.000268916 0.396588)
(1.8786e-05 0.000281421 0.401443)
(-1.88088e-05 0.000281419 0.401443)
(-5.49703e-05 0.000268911 0.396588)
(-8.66395e-05 0.000245393 0.387163)
(-0.000115618 0.000211983 0.37372)
(-0.000139513 0.000169531 0.357032)
(0.000419631 0.000496592 0.57563)
(0.00036233 0.000616128 0.601298)
(0.00028002 0.000717958 0.621915)
(0.000179084 0.00079274 0.636346)
(6.16012e-05 0.000832923 0.643773)
(-6.16414e-05 0.000832921 0.643772)
(-0.000179123 0.000792733 0.636346)
(-0.000280057 0.000717947 0.621915)
(-0.000362365 0.000616113 0.601298)
(-0.00041966 0.000496575 0.57563)
(0.000835242 0.000978178 0.778666)
(0.000729942 0.00120446 0.811716)
(0.000569149 0.00140221 0.83815)
(0.000364686 0.00154895 0.856618)
(0.000125624 0.00162796 0.866111)
(-0.000125683 0.00162796 0.866111)
(-0.000364744 0.00154894 0.856618)
(-0.000569203 0.00140219 0.83815)
(-0.000729992 0.00120444 0.811716)
(-0.000835285 0.000978157 0.778666)
(0.00134589 0.00156594 0.965935)
(0.00117946 0.00191061 1.00478)
(0.000921466 0.00221434 1.03569)
(0.000590077 0.00244 1.05723)
(0.000203235 0.00256137 1.06829)
(-0.000203313 0.00256137 1.06829)
(-0.000590153 0.00244 1.05723)
(-0.000921538 0.00221433 1.03569)
(-0.00117953 0.00191059 1.00478)
(-0.00134595 0.00156592 0.965934)
(0.0018992 0.00219783 1.13724)
(0.00166139 0.00265193 1.18031)
(0.00129608 0.00305191 1.21438)
(0.000828187 0.00334818 1.23807)
(0.000284953 0.00350706 1.25021)
(-0.000285051 0.00350706 1.25021)
(-0.000828281 0.00334817 1.23807)
(-0.00129617 0.0030519 1.21438)
(-0.00166147 0.00265191 1.18031)
(-0.00189927 0.0021978 1.13724)
(0.00243699 0.0028054 1.29237)
(0.00212191 0.00333995 1.33815)
(0.00164932 0.00380784 1.37413)
(0.00105042 0.00415237 1.39908)
(0.000360817 0.00433633 1.41183)
(-0.000360933 0.00433632 1.41183)
(-0.00105053 0.00415236 1.39908)
(-0.00164943 0.00380783 1.37413)
(-0.00212201 0.00333994 1.33815)
(-0.00243708 0.00280538 1.29237)
(0.00290192 0.00332078 1.43106)
(0.0025098 0.00389054 1.47814)
(0.00194052 0.00438362 1.51489)
(0.00123051 0.00474349 1.54027)
(0.000421729 0.00493451 1.55322)
(-0.000421862 0.0049345 1.55322)
(-0.00123064 0.00474348 1.54027)
(-0.00194065 0.00438361 1.51489)
(-0.00250991 0.00389053 1.47814)
(-0.00290202 0.00332076 1.43106)
(0.00324879 0.003688 1.55281)
(0.00278548 0.0042391 1.60014)
(0.00213804 0.00470394 1.63673)
(0.00134786 0.005039 1.6618)
(0.000460551 0.00521532 1.67452)
(-0.000460698 0.00521532 1.67452)
(-0.00134801 0.005039 1.6618)
(-0.00213817 0.00470393 1.63673)
(-0.0027856 0.00423909 1.60014)
(-0.0032489 0.00368799 1.55281)
(0.00345079 0.00391447 1.65687)
(0.00291975 0.00434677 1.70455)
(0.00221555 0.00471519 1.74003)
(0.0013857 0.00497584 1.764)
(0.000471573 0.00511134 1.77606)
(-0.00047173 0.00511134 1.77606)
(-0.00138585 0.00497584 1.764)
(-0.00221569 0.00471519 1.74003)
(-0.00291989 0.00434677 1.70454)
(-0.00345091 0.00391447 1.65687)
(-4.43981e-07 1.88235e-07 0.122913)
(-1.48358e-06 6.79296e-07 0.129001)
(-1.67522e-06 5.03393e-07 0.13391)
(-1.09033e-06 1.87081e-07 0.137357)
(-3.94916e-07 7.45961e-09 0.139134)
(3.90065e-07 7.09629e-09 0.139134)
(1.08561e-06 1.85995e-07 0.137357)
(1.67078e-06 5.01639e-07 0.13391)
(1.47936e-06 6.76868e-07 0.129001)
(4.40519e-07 1.85324e-07 0.122913)
(3.93864e-05 4.7402e-05 0.356463)
(3.23632e-05 6.02318e-05 0.373122)
(2.42279e-05 7.03658e-05 0.386539)
(1.54728e-05 7.76473e-05 0.395946)
(5.29879e-06 8.15726e-05 0.400792)
(-5.31503e-06 8.15716e-05 0.400792)
(-1.54886e-05 7.76442e-05 0.395946)
(-2.42427e-05 7.03608e-05 0.386539)
(-3.23771e-05 6.02251e-05 0.373122)
(-3.93978e-05 4.73938e-05 0.356463)
(0.000135102 0.000158617 0.574702)
(0.000116983 0.000198913 0.60033)
(9.08388e-05 0.000233563 0.620911)
(5.83805e-05 0.000259404 0.635318)
(2.01227e-05 0.000273405 0.642732)
(-2.01514e-05 0.000273403 0.642732)
(-5.84083e-05 0.000259399 0.635318)
(-9.08651e-05 0.000233555 0.620911)
(-0.000117007 0.000198903 0.600329)
(-0.000135123 0.000158605 0.574702)
(0.000286112 0.000332878 0.777483)
(0.000251301 0.000413575 0.8105)
(0.000197024 0.000484745 0.836907)
(0.00012681 0.000538237 0.855357)
(4.37717e-05 0.000567237 0.864841)
(-4.38137e-05 0.000567235 0.864841)
(-0.000126851 0.000538231 0.855357)
(-0.000197062 0.000484736 0.836906)
(-0.000251336 0.000413562 0.8105)
(-0.000286143 0.000332863 0.777483)
(0.000479895 0.000555097 0.964657)
(0.000423072 0.000682836 1.0035)
(0.000332457 0.000796421 1.03441)
(0.000213834 0.00088179 1.05596)
(7.38015e-05 0.000927995 1.06702)
(-7.38573e-05 0.000927993 1.06702)
(-0.000213888 0.000881783 1.05596)
(-0.000332508 0.00079641 1.03441)
(-0.000423119 0.000682822 1.0035)
(-0.000479936 0.000555081 0.964657)
(0.000697566 0.000802856 1.13606)
(0.000614235 0.000976234 1.17919)
(0.00048207 0.00113034 1.2133)
(0.000309403 0.00124573 1.23703)
(0.00010668 0.00130798 1.2492)
(-0.00010675 0.00130798 1.2492)
(-0.000309471 0.00124572 1.23703)
(-0.000482134 0.00113033 1.2133)
(-0.000614294 0.00097622 1.17919)
(-0.000697618 0.000802839 1.13606)
(0.000916356 0.00104935 1.29149)
(0.000803457 0.00125853 1.3374)
(0.000628348 0.00144332 1.37349)
(0.000401952 0.00158078 1.39852)
(0.00013836 0.00165459 1.41133)
(-0.000138443 0.00165459 1.41133)
(-0.000402033 0.00158077 1.39852)
(-0.000628424 0.00144331 1.37349)
(-0.000803528 0.00125851 1.3374)
(-0.000916418 0.00104934 1.29149)
(0.00111251 0.00126649 1.43066)
(0.000969148 0.00149426 1.47795)
(0.000753892 0.00169323 1.51489)
(0.000480114 0.00183979 1.54041)
(0.000164883 0.00191799 1.55343)
(-0.000164979 0.00191799 1.55343)
(-0.000480207 0.00183979 1.54041)
(-0.000753981 0.00169322 1.51489)
(-0.000969229 0.00149425 1.47795)
(-0.00111258 0.00126648 1.43066)
(0.00126628 0.0014301 1.55305)
(0.00109344 0.0016549 1.60067)
(0.000844138 0.00184609 1.63751)
(0.000534301 0.00198492 1.66277)
(0.000182909 0.00205829 1.6756)
(-0.000183015 0.00205829 1.6756)
(-0.000534404 0.00198492 1.66277)
(-0.000844236 0.00184608 1.63751)
(-0.00109353 0.0016549 1.60067)
(-0.00126636 0.00143009 1.55305)
(0.0013645 0.00154182 1.65783)
(0.00116159 0.00172295 1.70589)
(0.000886025 0.00187686 1.74169)
(0.000556117 0.00198626 1.76589)
(0.000189565 0.00204331 1.77807)
(-0.000189678 0.00204331 1.77807)
(-0.000556228 0.00198626 1.76589)
(-0.00088613 0.00187686 1.74169)
(-0.00116169 0.00172295 1.70589)
(-0.00136459 0.00154181 1.65783)
(1.50845e-08 7.80451e-07 0.122884)
(-8.44341e-07 1.16543e-06 0.12897)
(-1.05117e-06 9.94836e-07 0.133876)
(-7.63224e-07 7.03344e-07 0.13732)
(-2.84019e-07 5.17387e-07 0.139095)
(2.80669e-07 5.17142e-07 0.139095)
(7.59968e-07 7.02583e-07 0.13732)
(1.04813e-06 9.93622e-07 0.133876)
(8.41516e-07 1.16377e-06 0.12897)
(-1.7429e-08 7.78523e-07 0.122884)
(1.11836e-05 1.47109e-05 0.35633)
(7.88998e-06 1.89492e-05 0.372977)
(5.25088e-06 2.16381e-05 0.386383)
(3.14274e-06 2.33377e-05 0.395782)
(1.03633e-06 2.41984e-05 0.400622)
(-1.04756e-06 2.41977e-05 0.400622)
(-3.15363e-06 2.33355e-05 0.395781)
(-5.2611e-06 2.16346e-05 0.386383)
(-7.89935e-06 1.89445e-05 0.372977)
(-1.11915e-05 1.47055e-05 0.35633)
(4.1435e-05 5.01935e-05 0.574451)