/*--------------------------------*- C++ -*----------------------------------*\
| =========                 |                                                 |
| \\      /  F ield         | OpenFOAM: The Open Source CFD Toolbox           |
|  \\    /   O peration     | Version:  2106                                  |
|   \\  /    A nd           | Website:  www.openfoam.com                      |
|    \\/     M anipulation  |                                                 |
\*---------------------------------------------------------------------------*/
FoamFile
{
    version     2.0;
    format      ascii;
    arch        "LSB;label=32;scalar=64";
    class       volVectorField;
    location    "0.81";
    object      U;
}
// * * * * * * * * * * * * * * * * * * * * * * * * * * * * * * * * * * * * * //

dimensions      [0 1 -1 0 0 0 0];

internalField   nonuniform List<vector> 
10000
(
(0.0625635 0.0737211 0.345096)
(0.0533592 0.0838414 0.359576)
(0.0398495 0.0929928 0.370939)
(0.0247211 0.0993753 0.378788)
(0.00837788 0.102675 0.382776)
(-0.00837789 0.102675 0.382776)
(-0.0247211 0.0993753 0.378788)
(-0.0398495 0.0929928 0.370939)
(-0.0533592 0.0838414 0.359576)
(-0.0625636 0.0737211 0.345096)
(0.172067 0.204138 0.72783)
(0.145247 0.231382 0.747479)
(0.108436 0.255344 0.762117)
(0.0670895 0.271932 0.772015)
(0.0227096 0.280487 0.776963)
(-0.0227097 0.280487 0.776963)
(-0.0670896 0.271932 0.772015)
(-0.108436 0.255344 0.762117)
(-0.145247 0.231382 0.747479)
(-0.172067 0.204138 0.72783)
(0.222648 0.264374 0.923738)
(0.18584 0.296087 0.939565)
(0.137856 0.323778 0.950628)
(0.0848703 0.342723 0.957931)
(0.0286578 0.35243 0.961513)
(-0.0286578 0.35243 0.961513)
(-0.0848703 0.342723 0.957931)
(-0.137856 0.323778 0.950628)
(-0.18584 0.296087 0.939565)
(-0.222648 0.264374 0.923738)
(0.237678 0.281766 1.02285)
(0.196442 0.31165 1.03336)
(0.14482 0.337798 1.04002)
(0.0887453 0.355486 1.04428)
(0.0298984 0.364491 1.04632)
(-0.0298985 0.364491 1.04632)
(-0.0887453 0.355486 1.04428)
(-0.14482 0.337798 1.04002)
(-0.196442 0.31165 1.03336)
(-0.237678 0.281766 1.02285)
(0.235749 0.278983 1.0712)
(0.193248 0.304989 1.07716)
(0.141717 0.327881 1.08028)
(0.0864956 0.343233 1.08216)
(0.0290844 0.351001 1.08301)
(-0.0290844 0.351001 1.08301)
(-0.0864956 0.343233 1.08216)
(-0.141717 0.327881 1.08028)
(-0.193248 0.304989 1.07716)
(-0.235749 0.278983 1.0712)
(0.224752 0.265484 1.09228)
(0.18284 0.286898 1.09486)
(0.13345 0.305901 1.09551)
(0.0811493 0.31857 1.09576)
(0.0272387 0.324944 1.09581)
(-0.0272388 0.324944 1.09581)
(-0.0811494 0.31857 1.09576)
(-0.13345 0.3059 1.09551)
(-0.18284 0.286898 1.09486)
(-0.224752 0.265484 1.09228)
(0.208424 0.245569 1.09889)
(0.168274 0.262152 1.09917)
(0.122268 0.277014 1.09826)
(0.0740897 0.286904 1.0975)
(0.0248274 0.291858 1.09707)
(-0.0248275 0.291858 1.09707)
(-0.0740898 0.286904 1.0975)
(-0.122268 0.277014 1.09826)
(-0.168274 0.262152 1.09917)
(-0.208424 0.245569 1.09889)
(0.189097 0.221962 1.09821)
(0.151495 0.233757 1.09703)
(0.109612 0.244466 1.09523)
(0.0662045 0.251627 1.09392)
(0.0221501 0.255214 1.09324)
(-0.0221502 0.255214 1.09324)
(-0.0662046 0.251627 1.09392)
(-0.109612 0.244466 1.09523)
(-0.151495 0.233757 1.09703)
(-0.189097 0.221962 1.09821)
(0.168302 0.19645 1.09423)
(0.133873 0.203644 1.09216)
(0.0964697 0.210325 1.08995)
(0.0580845 0.214923 1.0884)
(0.0194038 0.217246 1.08762)
(-0.0194039 0.217246 1.08762)
(-0.0580846 0.214923 1.0884)
(-0.0964698 0.210325 1.08995)
(-0.133873 0.203644 1.09216)
(-0.168302 0.19645 1.09423)
(0.147201 0.170685 1.08918)
(0.116608 0.171787 1.08665)
(0.0834472 0.175069 1.0843)
(0.0500584 0.17746 1.08271)
(0.0166929 0.178689 1.08191)
(-0.016693 0.178689 1.08191)
(-0.0500585 0.17746 1.08271)
(-0.0834473 0.175069 1.0843)
(-0.116608 0.171787 1.08665)
(-0.147201 0.170685 1.08918)
(0.0111955 0.0143009 0.266506)
(0.00940584 0.0175917 0.278767)
(0.00710222 0.0202352 0.288808)
(0.00449594 0.0220475 0.295797)
(0.00153828 0.0229917 0.299374)
(-0.0015383 0.0229917 0.299374)
(-0.00449595 0.0220475 0.295797)
(-0.00710223 0.0202352 0.288808)
(-0.00940585 0.0175917 0.278767)
(-0.0111955 0.0143009 0.266506)
(0.0544221 0.0658479 0.629476)
(0.0467322 0.0792239 0.65142)
(0.0357655 0.0906856 0.669018)
(0.0226112 0.098807 0.68112)
(0.00773776 0.10307 0.687263)
(-0.0077378 0.10307 0.687263)
(-0.0226113 0.098807 0.68112)
(-0.0357656 0.0906856 0.669018)
(-0.0467322 0.0792239 0.65142)
(-0.0544221 0.0658479 0.629476)
(0.0977992 0.116814 0.876428)
(0.083441 0.138156 0.90025)
(0.063524 0.156471 0.918935)
(0.0399199 0.169398 0.931629)
(0.0136205 0.176148 0.938022)
(-0.0136205 0.176148 0.938022)
(-0.03992 0.169398 0.931629)
(-0.0635241 0.156471 0.918934)
(-0.0834411 0.138156 0.90025)
(-0.0977992 0.116814 0.876428)
(0.133894 0.158751 1.04419)
(0.113268 0.184889 1.06619)
(0.0856779 0.207215 1.08303)
(0.053537 0.22286 1.09432)
(0.0182148 0.230985 1.09997)
(-0.0182149 0.230985 1.09997)
(-0.0535371 0.22286 1.09432)
(-0.085678 0.207215 1.08303)
(-0.113268 0.184889 1.06619)
(-0.133894 0.158751 1.04419)
(0.159745 0.188323 1.15724)
(0.133982 0.216202 1.17586)
(0.100712 0.239854 1.18973)
(0.0626076 0.256309 1.19892)
(0.0212462 0.264808 1.20347)
(-0.0212463 0.264808 1.20347)
(-0.0626077 0.256309 1.19892)
(-0.100712 0.239854 1.18973)
(-0.133982 0.216202 1.17586)
(-0.159745 0.188323 1.15724)
(0.175393 0.205703 1.2323)
(0.145864 0.232834 1.24713)
(0.108984 0.255653 1.25784)
(0.0674268 0.271421 1.26484)
(0.0228272 0.279522 1.26828)
(-0.0228274 0.279522 1.26828)
(-0.0674269 0.271421 1.26484)
(-0.108984 0.255653 1.25784)
(-0.145864 0.232834 1.24713)
(-0.175393 0.205703 1.2323)
(0.181897 0.212231 1.28119)
(0.149982 0.236714 1.29243)
(0.111405 0.257064 1.30028)
(0.0686144 0.271043 1.30532)
(0.0231772 0.278191 1.30777)
(-0.0231774 0.278191 1.30777)
(-0.0686146 0.271043 1.30532)
(-0.111405 0.257064 1.30028)
(-0.149982 0.236714 1.29243)
(-0.181897 0.212231 1.28119)
(0.180596 0.209537 1.31225)
(0.147622 0.229991 1.32039)
(0.109031 0.246717 1.32587)
(0.0668662 0.258153 1.32932)
(0.0225388 0.263982 1.33097)
(-0.022539 0.263982 1.33097)
(-0.0668664 0.258152 1.32932)
(-0.109031 0.246717 1.32587)
(-0.147622 0.229991 1.32039)
(-0.180596 0.209537 1.31225)
(0.172947 0.199293 1.33132)
(0.140199 0.214785 1.33698)
(0.102963 0.227095 1.34063)
(0.0628753 0.235529 1.34285)
(0.0211486 0.239824 1.3439)
(-0.0211489 0.239824 1.3439)
(-0.0628755 0.235529 1.34285)
(-0.102963 0.227095 1.34063)
(-0.140199 0.214785 1.33698)
(-0.172947 0.199293 1.33132)
(0.160516 0.184307 1.34251)
(0.129259 0.192244 1.34634)
(0.0941513 0.199788 1.34862)
(0.0572051 0.204992 1.34994)
(0.0191942 0.20764 1.35054)
(-0.0191945 0.20764 1.35054)
(-0.0572053 0.204992 1.34994)
(-0.0941515 0.199788 1.34862)
(-0.129259 0.192244 1.34634)
(-0.160516 0.184307 1.34251)
(0.00112223 0.0012533 0.157609)
(0.00113335 0.00160046 0.165907)
(0.00088347 0.00200869 0.172836)
(0.000591383 0.00231106 0.177741)
(0.000206072 0.00247862 0.18028)
(-0.000206086 0.00247862 0.18028)
(-0.000591397 0.00231106 0.177741)
(-0.000883483 0.00200868 0.172836)
(-0.00113336 0.00160046 0.165907)
(-0.00112224 0.00125329 0.157609)
(0.0180226 0.0209131 0.441565)
(0.0162078 0.0255139 0.461765)
(0.0126849 0.0298434 0.478354)
(0.00814702 0.0330412 0.489997)
(0.0028073 0.0347591 0.49599)
(-0.00280735 0.0347591 0.49599)
(-0.00814707 0.0330412 0.489997)
(-0.012685 0.0298434 0.478354)
(-0.0162078 0.0255139 0.461765)
(-0.0180226 0.020913 0.441565)
(0.0410839 0.0478209 0.685115)
(0.0362857 0.0574534 0.712689)
(0.0281902 0.0662394 0.734974)
(0.0179576 0.072664 0.750485)
(0.00616566 0.0760854 0.758428)
(-0.00616574 0.0760854 0.758428)
(-0.0179577 0.072664 0.750485)
(-0.0281903 0.0662394 0.734974)
(-0.0362857 0.0574534 0.712689)
(-0.0410839 0.0478209 0.685115)
(0.0659674 0.0768461 0.887723)
(0.0575001 0.0910312 0.918903)
(0.0443422 0.103723 0.943681)
(0.028066 0.112905 0.960783)
(0.00960718 0.11776 0.969498)
(-0.0096073 0.11776 0.969498)
(-0.0280661 0.112905 0.960783)
(-0.0443423 0.103723 0.943681)
(-0.0575002 0.0910312 0.918903)
(-0.0659675 0.0768461 0.887723)
(0.0882002 0.102628 1.05282)
(0.0760074 0.119898 1.08482)
(0.0581991 0.135122 1.10982)
(0.0366298 0.146031 1.12693)
(0.0125046 0.151761 1.1356)
(-0.0125048 0.151761 1.1356)
(-0.03663 0.146031 1.12693)
(-0.0581993 0.135122 1.10982)
(-0.0760075 0.119898 1.08482)
(-0.0882003 0.102628 1.05282)
(0.105539 0.122486 1.18531)
(0.089996 0.141089 1.21625)
(0.0684393 0.157265 1.24001)
(0.0428509 0.168753 1.25613)
(0.0145913 0.174752 1.26427)
(-0.0145915 0.174752 1.26427)
(-0.0428511 0.168753 1.25613)
(-0.0684395 0.157265 1.24001)
(-0.0899962 0.141089 1.21625)
(-0.105539 0.122486 1.18531)
(0.117131 0.13545 1.29031)
(0.0988681 0.1537 1.31904)
(0.0746823 0.169332 1.34074)
(0.0465271 0.180345 1.35535)
(0.0158044 0.186065 1.36269)
(-0.0158046 0.186065 1.36269)
(-0.0465273 0.180345 1.35535)
(-0.0746825 0.169332 1.34074)
(-0.0988683 0.1537 1.31904)
(-0.117131 0.13545 1.29031)
(0.122852 0.141409 1.3726)
(0.102655 0.157828 1.39852)
(0.0770289 0.171643 1.41782)
(0.0477559 0.181304 1.43071)
(0.0161828 0.186297 1.43716)
(-0.016183 0.186297 1.43716)
(-0.0477562 0.181304 1.43071)
(-0.0770291 0.171643 1.41782)
(-0.102655 0.157828 1.39852)
(-0.122852 0.141409 1.3726)
(0.1231 0.140799 1.43629)
(0.101849 0.154206 1.45929)
(0.0758938 0.165159 1.47616)
(0.0468103 0.172786 1.48732)
(0.0158217 0.176711 1.49286)
(-0.015822 0.176711 1.49286)
(-0.0468105 0.172786 1.48732)
(-0.0758941 0.165159 1.47616)
(-0.101849 0.154206 1.45929)
(-0.1231 0.140799 1.43629)
(0.118692 0.135435 1.48471)
(0.0972432 0.143495 1.5053)
(0.0717482 0.150784 1.51983)
(0.0439788 0.155834 1.5293)
(0.0148194 0.158418 1.53397)
(-0.0148197 0.158418 1.53397)
(-0.0439791 0.155834 1.5293)
(-0.0717485 0.150784 1.51983)
(-0.0972435 0.143495 1.5053)
(-0.118692 0.135435 1.48471)
(0.000713517 0.000937049 0.13786)
(0.000557749 0.00117493 0.144665)
(0.000381997 0.00134363 0.150206)
(0.000236917 0.0014435 0.154096)
(7.93377e-05 0.00149349 0.156102)
(-7.93509e-05 0.00149349 0.156102)
(-0.00023693 0.0014435 0.154096)
(-0.000382009 0.00134363 0.150206)
(-0.00055776 0.00117492 0.144665)
(-0.000713526 0.000937042 0.13786)
(0.0070447 0.00842321 0.395315)
(0.00611761 0.0103824 0.413376)
(0.00470452 0.0120777 0.427999)
(0.00300155 0.0132949 0.438233)
(0.00103085 0.0139425 0.4435)
(-0.00103089 0.0139425 0.4435)
(-0.00300159 0.0132949 0.438233)
(-0.00470456 0.0120777 0.427999)
(-0.00611764 0.0103824 0.413376)
(-0.00704473 0.00842319 0.395315)
(0.0172786 0.0204012 0.628409)
(0.0150737 0.02484 0.655075)
(0.0116663 0.0287357 0.676496)
(0.00743259 0.0315643 0.691427)
(0.00255253 0.033069 0.69909)
(-0.0025526 0.033069 0.69909)
(-0.00743267 0.0315642 0.691426)
(-0.0116663 0.0287357 0.676496)
(-0.0150737 0.0248399 0.655075)
(-0.0172787 0.0204011 0.628409)
(0.0296477 0.0348075 0.835227)
(0.0257801 0.0418744 0.867817)
(0.0199267 0.048076 0.89375)
(0.0126551 0.0525742 0.911737)
(0.00433995 0.0549599 0.92094)
(-0.00434007 0.0549599 0.92094)
(-0.0126552 0.0525742 0.911737)
(-0.0199268 0.048076 0.89375)
(-0.0257802 0.0418743 0.867817)
(-0.0296478 0.0348075 0.835227)
(0.0421002 0.0492067 1.01572)
(0.0363827 0.0584504 1.05182)
(0.0280092 0.0665164 1.08024)
(0.0177178 0.0723378 1.09985)
(0.00606462 0.0754121 1.10985)
(-0.00606477 0.0754121 1.10985)
(-0.0177179 0.0723378 1.09985)
(-0.0280093 0.0665164 1.08024)
(-0.0363828 0.0584504 1.05182)
(-0.0421003 0.0492066 1.01572)
(0.0531439 0.0618397 1.17106)
(0.0455784 0.0724614 1.20864)
(0.0349037 0.0816436 1.23789)
(0.0219826 0.0882268 1.25796)
(0.0075083 0.0916867 1.26817)
(-0.00750849 0.0916867 1.26817)
(-0.0219827 0.0882268 1.25796)
(-0.0349039 0.0816436 1.23789)
(-0.0455785 0.0724614 1.20864)
(-0.053144 0.0618397 1.17106)
(0.061792 0.0715651 1.30304)
(0.0525438 0.0826105 1.34048)
(0.0399972 0.0920379 1.36932)
(0.0250738 0.0987467 1.389)
(0.0085445 0.102255 1.39896)
(-0.00854473 0.102255 1.39896)
(-0.0250741 0.0987467 1.389)
(-0.0399974 0.0920379 1.36932)
(-0.052544 0.0826105 1.34048)
(-0.0617922 0.0715651 1.30304)
(0.0674521 0.0776998 1.41369)
(0.0568307 0.0881937 1.44983)
(0.0429826 0.0970037 1.47737)
(0.026815 0.103222 1.49605)
(0.00911567 0.106457 1.50548)
(-0.00911592 0.106457 1.50548)
(-0.0268152 0.103222 1.49605)
(-0.0429829 0.0970037 1.47737)
(-0.0568309 0.0881937 1.44983)
(-0.0674523 0.0776998 1.41369)
(0.0699277 0.0799794 1.50498)
(0.0583548 0.0890412 1.53915)
(0.0438216 0.0964356 1.56487)
(0.0271908 0.101618 1.58217)
(0.00921825 0.104298 1.59085)
(-0.00921853 0.104298 1.59085)
(-0.0271911 0.101618 1.58217)
(-0.0438219 0.0964356 1.56487)
(-0.058355 0.0890412 1.53915)
(-0.0699279 0.0799794 1.50498)
(0.069399 0.0791927 1.57861)
(0.0573058 0.0852159 1.61107)
(0.0425959 0.0904508 1.63459)
(0.0262544 0.0940845 1.6502)
(0.00887126 0.0959497 1.65798)
(-0.00887156 0.0959497 1.65798)
(-0.0262547 0.0940845 1.6502)
(-0.0425961 0.0904508 1.63459)
(-0.0573061 0.0852159 1.61107)
(-0.0693992 0.0791927 1.57861)
(0.000130549 0.00014278 0.126927)
(0.000120939 0.000187139 0.133267)
(8.93651e-05 0.000232589 0.13842)
(6.11364e-05 0.000264447 0.142044)
(2.11152e-05 0.00028251 0.143914)
(-2.11266e-05 0.000282509 0.143914)
(-6.11474e-05 0.000264445 0.142044)
(-8.93752e-05 0.000232586 0.13842)
(-0.000120948 0.000187134 0.133267)
(-0.000130556 0.000142774 0.126927)
(0.00251378 0.00290764 0.368099)
(0.00224849 0.00360465 0.385343)
(0.00176121 0.00424659 0.399313)
(0.00113831 0.00472424 0.409116)
(0.000393055 0.00498351 0.414168)
(-0.000393095 0.00498351 0.414168)
(-0.00113835 0.00472423 0.409116)
(-0.00176125 0.00424658 0.399313)
(-0.00224852 0.00360463 0.385343)
(-0.0025138 0.00290763 0.368099)
(0.00684784 0.007944 0.591713)
(0.00608414 0.00973871 0.61789)
(0.004769 0.0113685 0.638983)
(0.00306479 0.0125811 0.653744)
(0.00105668 0.0132347 0.661337)
(-0.00105675 0.0132347 0.661337)
(-0.00306486 0.0125811 0.653744)
(-0.00476907 0.0113685 0.638983)
(-0.0060842 0.00973868 0.61789)
(-0.00684789 0.00794397 0.591713)
(0.0125687 0.014583 0.796268)
(0.011094 0.0176831 0.829318)
(0.00867079 0.0204722 0.855767)
(0.0055486 0.0225369 0.874212)
(0.00190973 0.0236441 0.883681)
(-0.00190983 0.0236441 0.883681)
(-0.0055487 0.0225368 0.874212)
(-0.00867088 0.0204722 0.855767)
(-0.0110941 0.017683 0.829317)
(-0.0125688 0.014583 0.796267)
(0.0188005 0.0217783 0.981025)
(0.0164749 0.0260978 1.01894)
(0.0128188 0.0299482 1.04903)
(0.00816851 0.0327795 1.06994)
(0.002806 0.0342905 1.08065)
(-0.00280614 0.0342905 1.08065)
(-0.00816865 0.0327795 1.06994)
(-0.012819 0.0299482 1.04903)
(-0.016475 0.0260978 1.01894)
(-0.0188006 0.0217783 0.981025)
(0.0247727 0.0286155 1.14586)
(0.0215363 0.0338466 1.18677)
(0.0166665 0.0384599 1.21896)
(0.0105734 0.0418268 1.24122)
(0.00362438 0.0436144 1.2526)
(-0.00362455 0.0436144 1.2526)
(-0.0105736 0.0418268 1.24122)
(-0.0166666 0.0384599 1.21896)
(-0.0215364 0.0338466 1.18677)
(-0.0247729 0.0286154 1.14586)
(0.029869 0.0343724 1.29108)
(0.0257418 0.0400639 1.33332)
(0.0197997 0.045018 1.36625)
(0.0125022 0.0486044 1.38893)
(0.00427559 0.0504982 1.40049)
(-0.0042758 0.0504982 1.40049)
(-0.0125024 0.0486044 1.38893)
(-0.0197999 0.045018 1.36625)
(-0.025742 0.0400639 1.33332)
(-0.0298692 0.0343724 1.29108)
(0.0336349 0.0385168 1.41724)
(0.0287173 0.0441475 1.45941)
(0.021941 0.0489698 1.492)
(0.0137845 0.0524288 1.51433)
(0.00470218 0.0542447 1.52567)
(-0.00470242 0.0542447 1.52567)
(-0.0137847 0.0524288 1.51433)
(-0.0219412 0.0489698 1.492)
(-0.0287175 0.0441475 1.45941)
(-0.033635 0.0385168 1.41724)
(0.0358249 0.0407417 1.52488)
(0.0302815 0.0457991 1.56606)
(0.0229582 0.0500077 1.59752)
(0.0143392 0.0529965 1.6189)
(0.00487689 0.0545544 1.62969)
(-0.00487715 0.0545544 1.62969)
(-0.0143394 0.0529965 1.61889)
(-0.0229585 0.0500077 1.59752)
(-0.0302817 0.0457991 1.56606)
(-0.0358251 0.0407417 1.52488)
(0.0364102 0.0413545 1.61441)
(0.0304 0.0449291 1.65473)
(0.0227912 0.0480217 1.68438)
(0.0141297 0.0501863 1.70424)
(0.00478789 0.0513036 1.71419)
(-0.00478817 0.0513036 1.71419)
(-0.01413 0.0501863 1.70424)
(-0.0227915 0.0480217 1.68438)
(-0.0304002 0.0449292 1.65473)
(-0.0364104 0.0413545 1.61441)
(7.96931e-05 0.000107531 0.123959)
(5.58237e-05 0.000136405 0.1301)
(3.42427e-05 0.000153137 0.135061)
(2.0955e-05 0.000161414 0.138543)
(6.80908e-06 0.000165379 0.140339)
(-6.81826e-06 0.000165378 0.140339)
(-2.09641e-05 0.000161412 0.138543)
(-3.42508e-05 0.000153134 0.135061)
(-5.58312e-05 0.000136401 0.1301)
(-7.96994e-05 0.000107526 0.123959)
(0.00104064 0.00124266 0.359601)
(0.000893976 0.00154129 0.3764)
(0.000683739 0.00179266 0.389951)
(0.000436674 0.00197312 0.39945)
(0.000149891 0.00206963 0.404344)
(-0.000149924 0.00206963 0.404344)
(-0.000436706 0.00197311 0.39945)
(-0.000683768 0.00179265 0.389951)
(-0.000894003 0.00154128 0.3764)
(-0.00104066 0.00124264 0.359601)
(0.00286808 0.0033758 0.579297)
(0.00250497 0.00415236 0.605043)
(0.00194501 0.00483 0.625737)
(0.00124449 0.00532742 0.640217)
(0.000428212 0.00559424 0.647666)
(-0.000428272 0.00559424 0.647666)
(-0.00124455 0.00532742 0.640217)
(-0.00194507 0.00482998 0.625737)
(-0.00250502 0.00415234 0.605043)
(-0.00286812 0.00337577 0.579297)
(0.00537638 0.00628902 0.782323)
(0.00470884 0.00766719 0.81526)
(0.00366748 0.00888189 0.841601)
(0.00234445 0.00977711 0.859986)
(0.000806635 0.0102568 0.86943)
(-0.000806723 0.0102568 0.86943)
(-0.00234454 0.0097771 0.859986)
(-0.00366756 0.00888187 0.841601)
(-0.00470891 0.00766717 0.81526)
(-0.00537645 0.006289 0.782322)
(0.00824004 0.00959431 0.968183)
(0.00720068 0.0115764 1.00656)
(0.00560125 0.0133239 1.03706)
(0.00357219 0.014609 1.05828)
(0.00122778 0.0152957 1.06917)
(-0.0012279 0.0152957 1.06917)
(-0.00357231 0.014609 1.05828)
(-0.00560135 0.0133238 1.03706)
(-0.00720078 0.0115764 1.00656)
(-0.00824012 0.00959428 0.968183)
(0.0111273 0.0128989 1.13661)
(0.00967569 0.0153776 1.17872)
(0.0075002 0.0175508 1.21196)
(0.00476744 0.0191413 1.23501)
(0.00163597 0.0199878 1.24681)
(-0.00163612 0.0199878 1.24681)
(-0.00476758 0.0191413 1.23501)
(-0.00750033 0.0175508 1.21196)
(-0.00967581 0.0153775 1.17872)
(-0.0111274 0.0128989 1.13661)
(0.0137319 0.0158436 1.28749)
(0.0118595 0.018625 1.33175)
(0.00914763 0.02104 1.36641)
(0.00579118 0.0227955 1.39036)
(0.00198329 0.0237253 1.40259)
(-0.00198347 0.0237253 1.40259)
(-0.00579136 0.0227954 1.39036)
(-0.0091478 0.02104 1.36641)
(-0.0118597 0.0186249 1.33175)
(-0.013732 0.0158436 1.28749)
(0.015795 0.0181235 1.42083)
(0.0135307 0.0209584 1.4658)
(0.0103741 0.023386 1.50074)
(0.00653685 0.0251351 1.52479)
(0.00223332 0.0260564 1.53703)
(-0.00223352 0.0260564 1.53703)
(-0.00653705 0.0251351 1.52479)
(-0.0103743 0.023386 1.50074)
(-0.0135309 0.0209584 1.4658)
(-0.0157952 0.0181235 1.42083)
(0.0171459 0.0195254 1.53652)
(0.0145513 0.0221493 1.58118)
(0.0110742 0.0243367 1.61552)
(0.0069379 0.0258963 1.63896)
(0.00236335 0.0267115 1.65083)
(-0.00236357 0.0267115 1.65083)
(-0.00693811 0.0258963 1.63896)
(-0.0110744 0.0243367 1.61552)
(-0.0145515 0.0221493 1.58118)
(-0.017146 0.0195254 1.53652)
(0.0177197 0.0201489 1.63427)
(0.0148536 0.0220861 1.67871)
(0.0111793 0.0237473 1.71161)
(0.00695146 0.0249135 1.73375)
(0.00235904 0.0255167 1.74487)
(-0.00235927 0.0255167 1.74487)
(-0.00695169 0.0249135 1.73375)
(-0.0111796 0.0237473 1.71161)
(-0.0148538 0.0220861 1.67871)
(-0.0177199 0.0201489 1.63426)
(1.22802e-05 1.51032e-05 0.12246)
(8.36813e-06 2.06376e-05 0.128534)
(4.70235e-06 2.42737e-05 0.133436)
(3.46468e-06 2.63603e-05 0.136879)
(1.16275e-06 2.75725e-05 0.138654)
(-1.16976e-06 2.7572e-05 0.138654)
(-3.47149e-06 2.63588e-05 0.136879)
(-4.70875e-06 2.42713e-05 0.133436)
(-8.37415e-06 2.06341e-05 0.128534)
(-1.22852e-05 1.50992e-05 0.12246)
(0.000361897 0.00042286 0.355365)
(0.000315973 0.00052783 0.371993)
(0.000244758 0.000619411 0.385399)
(0.000158011 0.000687089 0.394801)
(5.44942e-05 0.000723869 0.399643)
(-5.45196e-05 0.000723867 0.399643)
(-0.000158035 0.000687085 0.3948)
(-0.000244781 0.000619404 0.385399)
(-0.000315994 0.00052782 0.371993)
(-0.000361915 0.000422849 0.355365)
(0.00108075 0.00125744 0.572966)
(0.000953315 0.0015553 0.598524)
(0.000746282 0.00182028 0.619066)
(0.000480458 0.0020182 0.633447)
(0.000165793 0.00212535 0.640847)
(-0.00016584 0.00212535 0.640847)
(-0.000480504 0.00201819 0.633447)
(-0.000746325 0.00182027 0.619066)
(-0.000953354 0.00155529 0.598524)
(-0.00108078 0.00125742 0.572966)
(0.00211916 0.00245914 0.774864)
(0.0018713 0.00301504 0.807721)
(0.00146755 0.00351188 0.834011)
(0.000942863 0.00388308 0.852376)
(0.000325186 0.00408346 0.861816)
(-0.000325256 0.00408346 0.861816)
(-0.000942931 0.00388307 0.852376)
(-0.00146761 0.00351187 0.834011)
(-0.00187136 0.00301503 0.807721)
(-0.00211921 0.00245912 0.774864)
(0.00335607 0.00388279 0.960739)
(0.00295578 0.00471307 0.999267)
(0.00231448 0.00545395 1.02992)
(0.0014831 0.00600559 1.05129)
(0.000510936 0.00630238 1.06225)
(-0.00051103 0.00630238 1.06225)
(-0.00148319 0.00600558 1.05129)
(-0.00231457 0.00545394 1.02992)
(-0.00295585 0.00471305 0.999267)
(-0.00335614 0.00388277 0.960739)
(0.0046541 0.00536523 1.13034)
(0.00407906 0.0064366 1.17294)
(0.00318299 0.00738704 1.20662)
(0.00203288 0.00809082 1.23002)
(0.000699229 0.00846791 1.24201)
(-0.000699347 0.00846791 1.24201)
(-0.002033 0.00809081 1.23002)
(-0.0031831 0.00738703 1.20662)
(-0.00407916 0.00643659 1.17294)
(-0.00465419 0.00536521 1.13034)
(0.00587468 0.00674357 1.28346)
(0.00511505 0.00797915 1.32859)
(0.003972 0.00906482 1.36402)
(0.00252663 0.00986297 1.38857)
(0.000867328 0.0102885 1.40112)
(-0.000867469 0.0102885 1.40112)
(-0.00252677 0.00986297 1.38857)
(-0.00397213 0.00906481 1.36402)
(-0.00511517 0.00797914 1.32859)
(-0.00587479 0.00674355 1.28346)
(0.00689126 0.00786843 1.41989)
(0.00595264 0.00915941 1.46613)
(0.00459459 0.0102785 1.50219)
(0.00290878 0.0110934 1.52706)
(0.000996084 0.0115253 1.53974)
(-0.000996245 0.0115253 1.53974)
(-0.00290893 0.0110934 1.52706)
(-0.00459474 0.0102785 1.50219)
(-0.00595277 0.0091594 1.46613)
(-0.00689138 0.00786842 1.41989)
(0.00761211 0.00862681 1.53925)
(0.00651344 0.00985089 1.58556)
(0.00498889 0.0108832 1.62131)
(0.00313942 0.0116258 1.64577)
(0.00107174 0.012016 1.65818)
(-0.00107191 0.012016 1.65818)
(-0.00313959 0.0116258 1.64577)
(-0.00498906 0.0108832 1.62131)
(-0.00651359 0.00985089 1.58556)
(-0.00761224 0.00862681 1.53925)
(0.00799054 0.00905137 1.6409)
(0.00674609 0.00998652 1.68737)
(0.00510699 0.010787 1.72191)
(0.00318821 0.0113523 1.74521)
(0.00108402 0.0116458 1.75693)
(-0.00108421 0.0116458 1.75693)
(-0.0031884 0.0113523 1.74521)
(-0.00510716 0.010787 1.72191)
(-0.00674625 0.00998653 1.68737)
(-0.00799068 0.00905138 1.6409)
(7.76783e-06 1.23509e-05 0.122063)
(3.22767e-06 1.61097e-05 0.12811)
(6.42738e-07 1.72266e-05 0.132985)
(1.5832e-07 1.7254e-05 0.136408)
(-2.77875e-08 1.7166e-05 0.138173)
(2.2637e-08 1.71656e-05 0.138173)
(-1.63334e-07 1.72529e-05 0.136408)
(-6.47459e-07 1.72248e-05 0.132985)
(-3.23222e-06 1.61071e-05 0.128109)
(-7.77156e-06 1.23478e-05 0.122063)
(0.000139187 0.00016912 0.354068)
(0.000115391 0.000211452 0.370618)
(8.64905e-05 0.000244788 0.38395)
(5.48773e-05 0.000268262 0.393298)
(1.87648e-05 0.000280748 0.398112)
(-1.87837e-05 0.000280747 0.398112)
(-5.48957e-05 0.000268259 0.393298)
(-8.65077e-05 0.000244783 0.38395)
(-0.000115407 0.000211445 0.370618)
(-0.0001392 0.000169111 0.354068)
(0.000418555 0.000495254 0.570883)
(0.000361471 0.000614448 0.596343)
(0.000279392 0.000716013 0.616793)
(0.000178697 0.000790611 0.631109)
(6.14721e-05 0.0008307 0.638475)
(-6.15072e-05 0.000830698 0.638475)
(-0.000178731 0.000790606 0.631109)
(-0.000279424 0.000716005 0.616793)
(-0.0003615 0.000614437 0.596343)
(-0.00041858 0.000495241 0.570882)
(0.000832956 0.00097542 0.772297)
(0.000728028 0.00120104 0.805086)
(0.000567702 0.00139824 0.831313)
(0.000363778 0.00154458 0.849637)
(0.000125316 0.00162339 0.859056)
(-0.000125369 0.00162338 0.859056)
(-0.000363829 0.00154458 0.849637)
(-0.00056775 0.00139823 0.831313)
(-0.000728073 0.00120102 0.805086)
(-0.000832994 0.000975405 0.772296)
(0.00134207 0.00156141 0.95811)
(0.00117622 0.00190506 0.996659)
(0.000918984 0.00220793 1.02733)
(0.00058851 0.00243296 1.04872)
(0.000202701 0.002554 1.05969)
(-0.000202773 0.002554 1.05969)
(-0.00058858 0.00243296 1.04872)
(-0.00091905 0.00220792 1.02733)
(-0.00117628 0.00190505 0.996658)
(-0.00134213 0.00156139 0.958109)
(0.00189372 0.00219138 1.12813)
(0.00165671 0.00264415 1.17089)
(0.00129249 0.00304299 1.20471)
(0.000825918 0.00333843 1.22823)
(0.000284179 0.00349687 1.24028)
(-0.000284269 0.00349686 1.24028)
(-0.000826005 0.00333842 1.22823)
(-0.00129257 0.00304298 1.20471)
(-0.00165679 0.00264413 1.17089)
(-0.00189378 0.00219136 1.12813)
(0.00242991 0.00279713 1.28214)
(0.00211587 0.00333014 1.32761)
(0.00164469 0.00379671 1.36334)
(0.0010475 0.00414027 1.38811)
(0.000359821 0.00432373 1.40078)
(-0.000359929 0.00432373 1.40078)
(-0.00104761 0.00414027 1.38811)
(-0.00164479 0.0037967 1.36334)
(-0.00211596 0.00333013 1.3276)
(-0.00242999 0.00279712 1.28214)
(0.00289349 0.00331102 1.41987)
(0.00250264 0.00387917 1.46664)
(0.00193506 0.00437088 1.50316)
(0.00122707 0.00472976 1.52838)
(0.000420557 0.00492026 1.54124)
(-0.000420681 0.00492026 1.54124)
(-0.00122719 0.00472976 1.52838)
(-0.00193517 0.00437088 1.50316)
(-0.00250275 0.00387916 1.46664)
(-0.00289358 0.00331102 1.41987)
(0.00323941 0.00367725 1.54084)
(0.00277755 0.00422683 1.58787)
(0.00213201 0.0046904 1.62424)
(0.00134409 0.00502456 1.64915)
(0.000459267 0.00520041 1.6618)
(-0.000459404 0.00520041 1.6618)
(-0.00134422 0.00502456 1.64915)
(-0.00213214 0.0046904 1.62424)
(-0.00277767 0.00422683 1.58787)
(-0.00323951 0.00367724 1.54084)
(0.0034409 0.00390321 1.64426)
(0.00291146 0.00433434 1.69165)
(0.00220929 0.00470177 1.72693)
(0.0013818 0.00496172 1.75077)
(0.000470252 0.00509686 1.76277)
(-0.000470398 0.00509686 1.76277)
(-0.00138194 0.00496172 1.75077)
(-0.00220942 0.00470178 1.72693)
(-0.00291158 0.00433434 1.69165)
(-0.00344101 0.00390321 1.64426)
(-4.20507e-07 2.09177e-07 0.121885)
(-1.45465e-06 7.02124e-07 0.127923)
(-1.64871e-06 5.31971e-07 0.132791)
(-1.07166e-06 2.21402e-07 0.136208)
(-3.87802e-07 4.53236e-08 0.13797)
(3.84177e-07 4.50573e-08 0.13797)
(1.06812e-06 2.20597e-07 0.136208)
(1.64536e-06 5.30678e-07 0.132791)
(1.45139e-06 7.003e-07 0.127923)
(4.17848e-07 2.06965e-07 0.121885)
(3.94988e-05 4.75147e-05 0.353499)
(3.24869e-05 6.03604e-05 0.37002)
(2.43368e-05 7.05184e-05 0.383327)
(1.55477e-05 7.78218e-05 0.392656)
(5.32635e-06 8.17602e-05 0.397462)
(-5.33985e-06 8.17594e-05 0.397462)
(-1.55608e-05 7.78195e-05 0.392656)
(-2.43492e-05 7.05147e-05 0.383327)
(-3.24985e-05 6.03553e-05 0.37002)
(-3.95084e-05 4.75083e-05 0.353499)
(0.000135271 0.000158786 0.569955)
(0.000117167 0.000199099 0.595375)
(9.10004e-05 0.000233778 0.615791)
(5.84913e-05 0.000259644 0.630082)
(2.01632e-05 0.000273661 0.637436)
(-2.01885e-05 0.00027366 0.637436)
(-5.85158e-05 0.000259641 0.630082)
(-9.10235e-05 0.000233772 0.615791)
(-0.000117189 0.000199091 0.595375)
(-0.000135289 0.000158777 0.569955)
(0.000286274 0.000333033 0.771116)
(0.000251484 0.00041373 0.803872)
(0.000197187 0.000484916 0.830071)
(0.000126923 0.000538422 0.848378)
(4.3813e-05 0.000567432 0.857788)
(-4.38513e-05 0.00056743 0.857788)
(-0.00012696 0.000538418 0.848378)
(-0.000197222 0.000484909 0.830071)
(-0.000251516 0.00041372 0.803872)
(-0.000286302 0.000333022 0.771115)
(0.000479976 0.000555155 0.956835)
(0.000423186 0.000682865 0.995381)
(0.000332566 0.000796437 1.02606)
(0.000213912 0.0008818 1.04744)
(7.38309e-05 0.000928002 1.05842)
(-7.38829e-05 0.000928001 1.05842)
(-0.000213962 0.000881795 1.04744)
(-0.000332614 0.00079643 1.02606)
(-0.00042323 0.000682855 0.995381)
(-0.000480014 0.000555143 0.956834)
(0.00069751 0.000802754 1.12695)
(0.000614228 0.000976069 1.16976)
(0.000482084 0.00113013 1.20363)
(0.000309419 0.00124549 1.22719)
(0.000106688 0.00130773 1.23927)
(-0.000106754 0.00130773 1.23927)
(-0.000309484 0.00124549 1.22719)
(-0.000482144 0.00113013 1.20363)
(-0.000614284 0.00097606 1.16976)
(-0.000697559 0.000802743 1.12695)
(0.000916134 0.00104906 1.28126)
(0.000803303 0.00125815 1.32685)
(0.000628244 0.00144286 1.36269)
(0.000401893 0.00158027 1.38756)
(0.000138342 0.00165406 1.40028)
(-0.000138421 0.00165406 1.40028)
(-0.00040197 0.00158027 1.38756)
(-0.000628318 0.00144286 1.36269)
(-0.00080337 0.00125814 1.32685)
(-0.000916194 0.00104905 1.28126)
(0.00111212 0.00126602 1.41948)
(0.000968847 0.00149369 1.46646)
(0.000753671 0.00169256 1.50316)
(0.000479978 0.00183906 1.52852)
(0.000164839 0.00191723 1.54145)
(-0.00016493 0.00191723 1.54145)
(-0.000480067 0.00183906 1.52852)
(-0.000753756 0.00169256 1.50316)
(-0.000968925 0.00149368 1.46645)
(-0.00111219 0.00126601 1.41948)
(0.00126575 0.00142948 1.54107)
(0.00109301 0.00165418 1.5884)
(0.000843812 0.00184528 1.62502)
(0.000534096 0.00198405 1.65013)
(0.00018284 0.00205738 1.66288)
(-0.000182942 0.00205739 1.66288)
(-0.000534196 0.00198405 1.65013)
(-0.000843907 0.00184528 1.62502)
(-0.0010931 0.00165418 1.5884)
(-0.00126583 0.00142948 1.54107)
(0.00136386 0.00154111 1.64521)
(0.00116106 0.00172214 1.69299)
(0.000885613 0.00187598 1.72859)
(0.000555857 0.00198532 1.75265)
(0.000189477 0.00204234 1.76477)
(-0.000189586 0.00204234 1.76477)
(-0.000555963 0.00198533 1.75265)
(-0.000885714 0.00187598 1.72859)
(-0.00116115 0.00172215 1.69299)
(-0.00136395 0.00154111 1.64521)
(2.57899e-08 7.8798e-07 0.121857)
(-8.29693e-07 1.17331e-06 0.127891)
(-1.03718e-06 1.00586e-06 0.132756)
(-7.52802e-07 7.18157e-07 0.136171)
(-2.79891e-07 5.34544e-07 0.137932)
(2.77439e-07 5.34364e-07 0.137932)
(7.50411e-07 7.17606e-07 0.136171)
(1.03491e-06 1.00496e-06 0.132756)
(8.2752e-07 1.17206e-06 0.127891)
(-2.7618e-08 7.86498e-07 0.121857)
(1.13053e-05 1.48398e-05 0.353364)
(8.01218e-06 1.91036e-05 0.369874)
(5.35452e-06 2.18221e-05 0.383169)
(3.21321e-06 2.35471e-05 0.392491)
(1.06192e-06 2.44226e-05 0.397291)
(-1.07116e-06 2.4422e-05 0.397291)
(-3.22219e-06 2.35454e-05 0.39249)
(-5.36299e-06 2.18195e-05 0.383169)
(-8.02004e-06 1.91e-05 0.369874)
(-1.13119e-05 1.48356e-05 0.353364)