/*--------------------------------*- C++ -*----------------------------------*\
| =========                 |                                                 |
| \\      /  F ield         | OpenFOAM: The Open Source CFD Toolbox           |
|  \\    /   O peration     | Version:  2106                                  |
|   \\  /    A nd           | Website:  www.openfoam.com                      |
|    \\/     M anipulation  |                                                 |
\*---------------------------------------------------------------------------*/
FoamFile
{
    version     2.0;
    format      ascii;
    arch        "LSB;label=32;scalar=64";
    class       surfaceScalarField;
    location    "0.2";
    object      phi;
}
// * * * * * * * * * * * * * * * * * * * * * * * * * * * * * * * * * * * * * //

dimensions      [0 3 -1 0 0 0 0];

oriented        oriented;

internalField   nonuniform List<scalar> 
29100
(
0.00117939
0.150237
0.0810787
-3.31761e-10
0.00145185
0.155095
0.0891021
0.00124571
0.158499
0.0958049
0.000709411
0.160765
0.100603
-3.02703e-09
0.161903
0.103101
-0.000709417
0.161903
0.103101
-0.00124572
0.160765
0.100603
-0.00145186
0.158499
0.0958049
-0.0011794
0.155095
0.0891021
0.150237
0.0810787
-6.64786e-09
0.0023574
0.207576
0.155967
-5.68966e-10
0.00327476
0.212081
0.169547
0.00292036
0.215087
0.180651
0.00168924
0.216956
0.188504
-7.67529e-09
0.217871
0.192562
-0.00168925
0.217871
0.192562
-0.00292038
0.216956
0.188504
-0.00327477
0.215087
0.180651
-0.00235742
0.212081
0.169547
0.207576
0.155967
-1.59908e-08
0.00299933
0.217964
0.185444
-8.40805e-10
0.00424133
0.220725
0.200543
0.00380609
0.222496
0.212697
0.00220399
0.223438
0.221216
-1.19917e-08
0.223869
0.225594
-0.00220401
0.223869
0.225594
-0.00380612
0.223438
0.221216
-0.00424136
0.222496
0.212697
-0.00299936
0.220725
0.200543
0.217964
0.185444
-2.38425e-08
0.00341277
0.203908
0.192644
-1.11094e-09
0.00475787
0.204915
0.207874
0.00425938
0.205474
0.219978
0.00246159
0.205564
0.228399
-1.62845e-08
0.205557
0.232708
-0.00246162
0.205557
0.232708
-0.00425942
0.205564
0.228399
-0.0047579
0.205474
0.219978
-0.0034128
0.204915
0.207874
0.203908
0.192644
-3.05238e-08
0.00362108
0.178233
0.187222
-1.43218e-09
0.00497681
0.17789
0.202058
0.00444143
0.177528
0.213724
0.00256275
0.177013
0.221789
-2.10281e-08
0.1767
0.225902
-0.00256279
0.176699
0.225902
-0.00444147
0.177013
0.221789
-0.00497685
0.177528
0.213724
-0.00362112
0.17789
0.202058
0.178233
0.187222
-3.6537e-08
0.00367978
0.14835
0.17454
-1.81968e-09
0.00500385
0.147125
0.188811
0.00445403
0.146173
0.199935
0.00256776
0.145308
0.207581
-2.66181e-08
0.144827
0.211469
-0.00256782
0.144827
0.211469
-0.00445409
0.145308
0.207581
-0.0050039
0.146173
0.199935
-0.00367982
0.147125
0.188811
0.14835
0.17454
-4.20719e-08
0.00365743
0.118426
0.157772
-2.29806e-09
0.00493457
0.116727
0.171469
0.00438336
0.115472
0.182069
0.00252606
0.114472
0.189317
-3.33777e-08
0.113936
0.192992
-0.00252613
0.113936
0.192992
-0.00438343
0.114472
0.189317
-0.00493463
0.115472
0.182069
-0.00365748
0.116727
0.171469
0.118426
0.157772
-4.73111e-08
0.00358983
0.0907082
0.138801
-2.90744e-09
0.00483314
0.0888308
0.151983
0.00429142
0.0874955
0.162121
0.00247366
0.0865256
0.169018
-4.11995e-08
0.086025
0.172507
-0.00247374
0.086025
0.172507
-0.00429149
0.0865256
0.169018
-0.00483321
0.0874955
0.162121
-0.00358989
0.0888307
0.151983
0.0907081
0.138801
-5.23888e-08
0.00352205
0.0662924
0.118736
-3.63778e-09
0.00476601
0.0644231
0.131473
0.004233
0.0631991
0.141219
0.00243907
0.0623868
0.147819
-4.97255e-08
0.0619834
0.15115
-0.00243917
0.0619834
0.15115
-0.00423309
0.0623868
0.147819
-0.00476609
0.0631991
0.141219
-0.00352212
0.0644231
0.131473
0.0662924
0.118736
-5.70482e-08
0.00370763
0.0982199
-4.65545e-09
0.045375
0.00491147
0.110584
0.0439241
0.00430612
0.119998
0.042982
0.00246126
0.126347
0.042403
-5.80805e-08
0.129543
0.0421179
-0.00246138
0.129543
0.0421178
-0.00430622
0.126347
0.042403
-0.00491156
0.119998
0.042982
-0.0037077
0.110584
0.0439241
0.0982199
-6.05891e-08
0.0453749
-0.000240832
0.036043
0.0452766
-4.96459e-10
-0.000242897
0.0391661
0.0499381
-0.000171373
0.0418074
0.053926
-8.5547e-05
0.0436949
0.0568218
-4.25506e-09
0.0446712
0.0583444
8.55386e-05
0.0446712
0.0583444
0.000171364
0.0436949
0.0568218
0.000242888
0.0418074
0.053926
0.000240822
0.0391661
0.0499381
0.0360429
0.0452766
-9.71138e-09
5.31341e-05
0.0790217
0.112935
-1.15663e-09
0.000235303
0.0846352
0.123895
0.000285135
0.0893052
0.133103
0.000192059
0.0925728
0.139719
-1.21036e-08
0.0942501
0.143175
-0.000192082
0.0942501
0.143175
-0.00028516
0.0925728
0.139719
-0.000235328
0.0893052
0.133103
-5.31592e-05
0.0846352
0.123895
0.0790217
0.112935
-2.53467e-08
0.000581209
0.108954
0.15493
-1.69254e-09
0.000981874
0.115326
0.169452
0.000962098
0.120553
0.181469
0.000588436
0.124135
0.190028
-1.94068e-08
0.125957
0.194476
-0.000588474
0.125957
0.194476
-0.000962138
0.124135
0.190028
-0.000981913
0.120553
0.181469
-0.000581248
0.115326
0.169452
0.108954
0.15493
-3.87067e-08
0.00116807
0.12382
0.17661
-2.17142e-09
0.00177699
0.129719
0.192873
0.00167135
0.134489
0.206148
0.000997932
0.137681
0.215526
-2.69633e-08
0.139287
0.220376
-0.000997985
0.139287
0.220376
-0.00167141
0.137681
0.215526
-0.00177705
0.134489
0.206148
-0.00116813
0.129719
0.192873
0.12382
0.17661
-5.00808e-08
0.0017308
0.125641
0.183671
-2.69089e-09
0.00251542
0.130418
0.200574
0.00232112
0.134211
0.214197
0.00136984
0.136676
0.223746
-3.51736e-08
0.137897
0.228662
-0.00136991
0.137897
0.228662
-0.00232119
0.136676
0.223746
-0.00251549
0.134211
0.214197
-0.00173086
0.130418
0.200574
0.125641
0.183671
-5.98769e-08
0.00222664
0.117671
0.180284
-3.29985e-09
0.00315293
0.121118
0.197185
0.00287679
0.123777
0.210645
0.00168637
0.125439
0.220009
-4.4433e-08
0.126245
0.224808
-0.00168646
0.126245
0.224808
-0.00287688
0.125439
0.220009
-0.00315301
0.123777
0.210645
-0.00222672
0.121118
0.197185
0.117671
0.180284
-6.8231e-08
0.0026349
0.103268
0.169539
-4.16188e-09
0.00367683
0.105452
0.186093
0.00333359
0.107053
0.199137
0.00194686
0.107997
0.208145
-5.50169e-08
0.108441
0.212743
-0.00194696
0.108441
0.212743
-0.0033337
0.107997
0.208145
-0.00367693
0.107053
0.199137
-0.00263498
0.105452
0.186093
0.103268
0.169539
-7.52073e-08
0.00295234
0.0853876
0.15373
-5.46348e-09
0.00410073
0.0864998
0.169787
0.00370946
0.0872473
0.182318
0.00216283
0.0876475
0.190915
-6.63859e-08
0.0878257
0.195285
-0.00216296
0.0878257
0.195285
-0.00370958
0.0876475
0.190915
-0.00410083
0.0872473
0.182318
-0.00295243
0.0864998
0.169787
0.0853876
0.15373
-8.07598e-08
0.00321583
0.0663711
0.134536
-7.30867e-09
0.00447794
0.066646
0.150065
0.00404704
0.066815
0.162082
0.00235621
0.0668832
0.170275
-7.75109e-08
0.0669081
0.174424
-0.00235636
0.0669081
0.174424
-0.00404718
0.0668832
0.170275
-0.00447806
0.066815
0.162082
-0.00321593
0.066646
0.150065
0.0663711
0.134536
-8.41115e-08
0.00358508
0.113169
-9.44812e-09
0.0478366
0.00494502
0.128212
0.0476581
0.00443076
0.139759
0.0475688
0.00256385
0.147584
0.0475135
-8.60768e-08
0.151533
0.0474818
-0.00256402
0.151533
0.0474818
-0.00443091
0.147584
0.0475135
-0.00494514
0.139759
0.0475688
-0.00358518
0.128212
0.0476581
0.113169
-8.40929e-08
0.0478366
3.92026e-05
0.00947248
0.0357649
-4.73294e-10
3.49913e-05
0.0104517
0.0394906
2.88158e-05
0.0112845
0.0426477
1.57809e-05
0.0119025
0.0449323
-3.95428e-09
0.0122282
0.046132
-1.57889e-05
0.0122282
0.046132
-2.8824e-05
0.0119025
0.0449323
-3.50001e-05
0.0112845
0.0426477
-3.92119e-05
0.0104517
0.0394906
0.00947248
0.0357649
-9.75983e-09
0.00026931
0.0285122
0.0936262
-9.16153e-10
0.00036351
0.0310357
0.103217
0.000323249
0.0331493
0.111278
0.000188049
0.0346716
0.117085
-1.15597e-08
0.0354665
0.120125
-0.000188072
0.0354665
0.120125
-0.000323272
0.0346716
0.117085
-0.000363535
0.0331493
0.111278
-0.000269336
0.0310357
0.103217
0.0285122
0.0936262
-2.57217e-08
0.000565729
0.0477588
0.135118
-1.50244e-09
0.000798873
0.0514079
0.148846
0.000721207
0.0544197
0.160276
0.000421876
0.0565374
0.168461
-1.91803e-08
0.0576329
0.172731
-0.000421915
0.0576329
0.172731
-0.000721246
0.0565374
0.168461
-0.000798913
0.0544197
0.160276
-0.000565768
0.051408
0.148846
0.0477588
0.135118
-3.95491e-08
0.000898687
0.0618562
0.161614
-2.16129e-09
0.00128406
0.0659216
0.177974
0.00116916
0.0692304
0.191452
0.000685352
0.0715065
0.201041
-2.70371e-08
0.0726718
0.206023
-0.000685406
0.0726718
0.206023
-0.00116921
0.0715065
0.201041
-0.00128411
0.0692304
0.191452
-0.000898739
0.0659216
0.177974
0.0618562
0.161614
-5.12709e-08
0.00124355
0.0691072
0.175176
-2.96716e-09
0.00177323
0.0729717
0.192995
0.00161858
0.0760685
0.207513
0.000948978
0.0781512
0.217771
-3.54218e-08
0.0792048
0.223078
-0.000949048
0.0792048
0.223078
-0.00161865
0.0781512
0.217771
-0.0017733
0.0760685
0.207513
-0.00124362
0.0729717
0.192995
0.0691072
0.175176
-6.10833e-08
0.00158137
0.0697555
0.178054
-3.92848e-09
0.00223888
0.0730165
0.196482
0.00204235
0.0755767
0.211333
0.00119663
0.077256
0.22175
-4.45535e-08
0.0780938
0.227116
-0.00119672
0.0780938
0.227116
-0.00204243
0.077256
0.22175
-0.00223896
0.0755767
0.211333
-0.00158144
0.0730165
0.196482
0.0697555
0.178054
-6.89613e-08
0.00189145
0.0650087
0.172394
-5.20491e-09
0.00266068
0.0674757
0.190865
0.00242441
0.0693579
0.205592
0.00141959
0.0705585
0.215848
-5.45195e-08
0.0711484
0.221108
-0.0014197
0.0711484
0.221108
-0.00242452
0.0705585
0.215848
-0.00266078
0.0693579
0.205592
-0.00189153
0.0674757
0.190865
0.0650087
0.172394
-7.47982e-08
0.00216043
0.0564541
0.160124
-7.01967e-09
0.00303262
0.0580948
0.178295
0.00276244
0.0593055
0.19264
0.00161697
0.0600576
0.202561
-6.46058e-08
0.0604222
0.207628
-0.00161709
0.0604222
0.207628
-0.00276256
0.0600576
0.202561
-0.00303273
0.0593056
0.19264
-0.00216052
0.0580948
0.178295
0.0564541
0.160124
-7.83425e-08
0.0024019
0.045695
0.142894
-9.41147e-09
0.00337457
0.0465868
0.1606
0.00307083
0.0472411
0.17445
0.0017954
0.0476442
0.183963
-7.36164e-08
0.047839
0.188802
-0.00179554
0.047839
0.188802
-0.00307096
0.0476442
0.183963
-0.00337469
0.0472411
0.17445
-0.00240199
0.0465869
0.1606
0.045695
0.142894
-7.88453e-08
0.00268757
0.122068
-1.19771e-08
0.0341092
0.00374266
0.139282
0.0344624
0.00338358
0.15261
0.034749
0.00196918
0.161702
0.0349399
-7.91441e-08
0.166309
0.0350325
-0.00196934
0.166309
0.0350325
-0.00338372
0.161702
0.0349399
-0.00374277
0.15261
0.034749
-0.00268765
0.139282
0.0344624
0.122067
-7.51084e-08
0.0341092
-3.12826e-05
0.00368491
0.0321113
-4.19966e-10
-4.48004e-05
0.0040568
0.0354473
-3.66103e-05
0.00437334
0.0382661
-2.03516e-05
0.00460866
0.0403074
-3.26439e-09
0.00473181
0.0413798
2.0345e-05
0.00473181
0.0413798
3.66033e-05
0.00460866
0.0403074
4.47928e-05
0.00437334
0.0382661
3.12744e-05
0.0040568
0.0354473
0.00368491
0.0321113
-8.5332e-09
2.34193e-06
0.0112903
0.0860185
-9.25801e-10
5.44084e-06
0.0123606
0.0949102
9.09924e-06
0.0132705
0.102378
7.6786e-06
0.0139317
0.107763
-9.6741e-09
0.0142783
0.110586
-7.69831e-06
0.0142783
0.110586
-9.11994e-06
0.0139317
0.107763
-5.46217e-06
0.0132705
0.102378
-2.36384e-06
0.0123606
0.0949102
0.0112903
0.0860185
-2.25422e-08
9.7939e-05
0.0198703
0.12644
-1.47541e-09
0.000147978
0.0216104
0.139546
0.000142235
0.0230774
0.150475
8.67907e-05
0.0241273
0.158321
-1.62321e-08
0.0246748
0.162422
-8.68234e-05
0.0246748
0.162422
-0.000142268
0.0241273
0.158321
-0.000148012
0.0230774
0.150475
-9.79732e-05
0.0216105
0.139546
0.0198703
0.12644
-3.46459e-08
0.000242037
0.0272305
0.154012
-2.15235e-09
0.000359417
0.0293937
0.170073
0.000338207
0.0311967
0.183354
0.000202641
0.0324666
0.192837
-2.29364e-08
0.033124
0.197776
-0.000202687
0.033124
0.197776
-0.000338253
0.0324666
0.192837
-0.000359462
0.0311967
0.183354
-0.000242081
0.0293937
0.170073
0.0272305
0.154012
-4.4785e-08
0.000418874
0.0320851
0.169903
-2.98477e-09
0.000612787
0.0343616
0.187833
0.000571719
0.0362311
0.20252
0.0003401
0.0375253
0.212944
-2.99555e-08
0.0381894
0.218352
-0.00034016
0.0381894
0.218352
-0.000571778
0.0375253
0.212944
-0.000612844
0.0362311
0.20252
-0.000418928
0.0343616
0.187833
0.0320851
0.169903
-5.31036e-08
0.000613509
0.0339652
0.17556
-3.99767e-09
0.000886014
0.0360838
0.194488
0.000821812
0.0377896
0.209839
0.000486826
0.0389484
0.220662
-3.73718e-08
0.0395371
0.226255
-0.0004869
0.0395371
0.226255
-0.000821884
0.0389484
0.220662
-0.000886082
0.0377896
0.209839
-0.000613571
0.0360838
0.194488
0.0339652
0.17556
-5.9498e-08
0.000810682
0.0330011
0.172548
-5.3371e-09
0.00116041
0.0347738
0.191825
0.0010722
0.0361651
0.207304
0.000633505
0.0370915
0.218143
-4.51511e-08
0.037557
0.223722
-0.000633594
0.037557
0.223722
-0.00107229
0.0370915
0.218143
-0.00116049
0.0361652
0.207304
-0.00081075
0.0347739
0.191825
0.0330011
0.172548
-6.3823e-08
0.000999551
0.0297047
0.162421
-7.17899e-09
0.00142581
0.0310325
0.18161
0.00131452
0.032046
0.196871
0.000775278
0.0327086
0.207483
-5.26197e-08
0.0330385
0.212922
-0.000775381
0.0330385
0.212922
-0.00131461
0.0327086
0.207483
-0.00142589
0.032046
0.196871
-0.000999623
0.0310325
0.18161
0.0297047
0.162421
-6.57631e-08
0.00118511
0.0247771
0.146636
-9.49751e-09
0.00168772
0.025644
0.165486
0.00155101
0.0262959
0.180337
0.000912388
0.0267186
0.190592
-5.87481e-08
0.0269282
0.195825
-0.000912502
0.0269282
0.195825
-0.00155112
0.0267187
0.190592
-0.00168781
0.0262959
0.180337
-0.00118518
0.025644
0.165486
0.0247772
0.146636
-6.47802e-08
0.0013931
0.126494
-1.18355e-08
0.0189578
0.00196669
0.144924
0.0194279
0.00179487
0.15928
0.0197971
0.00105055
0.169121
0.0200443
-6.16361e-08
0.174121
0.020167
-0.00105067
0.174121
0.020167
-0.00179498
0.169121
0.0200443
-0.00196677
0.15928
0.0197971
-0.00139317
0.144924
0.0194279
0.126494
-5.99616e-08
0.0189578
2.65706e-06
0.00108949
0.0310191
-3.30283e-10
3.92092e-07
0.00121155
0.034238
2.85409e-07
0.00131876
0.0369475
1.15858e-07
0.00140068
0.0389069
-2.64027e-09
0.00144447
0.0399354
-1.21216e-07
0.00144447
0.0399354
-2.90875e-07
0.00140068
0.0389069
-3.98118e-07
0.00131876
0.0369475
-2.66346e-06
0.00121155
0.034238
0.00108949
0.0310191
-6.77521e-09
2.66284e-05
0.00391737
0.0831639
-7.69454e-10
3.31368e-05
0.00432339
0.0917918
2.97139e-05
0.00467424
0.0990256
1.73589e-05
0.00493478
0.104242
-7.85727e-09
0.00507291
0.106975
-1.73748e-05
0.00507291
0.106975
-2.97304e-05
0.00493478
0.104242
-3.31538e-05
0.00467424
0.0990256
-2.66458e-05
0.0043234
0.0917918
0.00391738
0.0831639
-1.79502e-08
7.09582e-05
0.00752265
0.122764
-1.28464e-09
9.87147e-05
0.00824716
0.135595
9.00296e-05
0.00886614
0.146292
5.30766e-05
0.00931695
0.153976
-1.30254e-08
0.0095544
0.157993
-5.31028e-05
0.0095544
0.157993
-9.00563e-05
0.00931695
0.153976
-9.87419e-05
0.00886614
0.146292
-7.09854e-05
0.00824717
0.135595
0.00752266
0.122764
-2.76653e-08
0.000135298
0.0109662
0.150433
-1.90408e-09
0.000194253
0.0119391
0.166322
0.00017911
0.0127608
0.179474
0.000105925
0.0133494
0.188878
-1.8239e-08
0.0136572
0.193779
-0.000105961
0.0136572
0.193779
-0.000179147
0.0133494
0.188878
-0.00019429
0.0127608
0.179474
-0.000135334
0.0119391
0.166322
0.0109662
0.150433
-3.57928e-08
0.000216791
0.0135712
0.167081
-2.64629e-09
0.000313403
0.0146671
0.185008
0.000290128
0.01558
0.199724
0.000171719
0.0162236
0.210188
-2.35559e-08
0.0165573
0.215624
-0.000171766
0.0165573
0.215624
-0.000290175
0.0162236
0.210188
-0.000313448
0.01558
0.199724
-0.000216834
0.0146671
0.185008
0.0135712
0.167081
-4.2409e-08
0.000310704
0.0149644
0.173856
-3.53329e-09
0.000448348
0.0160491
0.192968
0.000415288
0.0169372
0.208515
0.000245733
0.0175528
0.219502
-2.89989e-08
0.0178691
0.225189
-0.000245791
0.0178691
0.225189
-0.000415344
0.0175528
0.219502
-0.0004484
0.0169372
0.208515
-0.000310752
0.0160491
0.192968
0.0149644
0.173856
-4.74142e-08
0.000410838
0.0150512
0.17205
-4.66259e-09
0.00059078
0.0160128
0.191682
0.000546928
0.0167835
0.207502
0.000323432
0.0173085
0.218611
-3.44985e-08
0.0175757
0.224338
-0.000323499
0.0175757
0.224338
-0.000546993
0.0173085
0.218611
-0.000590839
0.0167835
0.207502
-0.000410891
0.0160128
0.191682
0.0150512
0.17205
-5.07062e-08
0.000511838
0.0139549
0.163005
-6.14102e-09
0.000734678
0.0147189
0.182682
0.000679502
0.0153175
0.198392
0.000401441
0.0157186
0.209351
-3.95597e-08
0.015921
0.214978
-0.000401519
0.015921
0.214978
-0.000679574
0.0157187
0.209351
-0.000734743
0.0153175
0.198392
-0.000511894
0.0147189
0.182681
0.0139549
0.163005
-5.20276e-08
0.000614202
0.0119427
0.148034
-7.94463e-09
0.000879198
0.0124787
0.167461
0.000810666
0.0128913
0.182831
0.000477852
0.0131646
0.193479
-4.34679e-08
0.0133015
0.198922
-0.000477937
0.0133015
0.198922
-0.000810744
0.0131646
0.193479
-0.000879266
0.0128913
0.182831
-0.000614257
0.0124787
0.167461
0.0119427
0.148034
-5.10686e-08
0.000720426
0.128359
-9.7121e-09
0.00935744
0.00102365
0.147425
0.00967477
0.000939281
0.162333
0.0099229
0.000551682
0.172583
0.0100907
-4.4991e-08
0.177799
0.0101748
-0.000551769
0.177799
0.0101748
-0.00093936
0.172582
0.0100907
-0.00102372
0.162333
0.00992291
-0.000720478
0.147425
0.00967478
0.128358
-4.72204e-08
0.00935745
-4.98398e-06
0.000454607
0.0305695
-2.50951e-10
-7.55639e-06
0.000499895
0.0337407
-6.21396e-06
0.000538321
0.0364078
-3.48354e-06
0.000567397
0.0383367
-2.12525e-09
0.000582699
0.0393493
3.47925e-06
0.000582699
0.0393493
6.2095e-06
0.000567397
0.0383367
7.55171e-06
0.000538321
0.0364078
4.97913e-06
0.000499896
0.0337407
0.000454608
0.0305695
-5.08692e-09
-2.74612e-06
0.00156238
0.0820589
-6.18234e-10
-4.72652e-06
0.00171949
0.0905742
-3.61918e-06
0.00185394
0.0977089
-1.80141e-06
0.00195375
0.102854
-6.22048e-09
0.00200655
0.105549
1.78887e-06
0.00200655
0.105549
3.60638e-06
0.00195375
0.102854
4.71328e-06
0.00185394
0.0977089
2.73249e-06
0.00171949
0.0905742
0.00156238
0.0820589
-1.35616e-08
1.03962e-05
0.00301001
0.121306
-1.05131e-09
1.48813e-05
0.00330528
0.134004
1.4548e-05
0.00355759
0.144588
9.03234e-06
0.0037423
0.152193
-1.0164e-08
0.00383979
0.156169
-9.05274e-06
0.00383979
0.156169
-1.45686e-05
0.0037423
0.152193
-1.4902e-05
0.00355759
0.144588
-1.04167e-05
0.00330528
0.134004
0.00301002
0.121306
-2.08224e-08
3.40836e-05
0.00446952
0.148939
-1.53809e-09
5.01776e-05
0.004887
0.164724
4.75396e-05
0.00524128
0.177793
2.86535e-05
0.00549723
0.187142
-1.40451e-08
0.00563164
0.192016
-2.86816e-05
0.00563164
0.192016
-4.75677e-05
0.00549723
0.187142
-5.02054e-05
0.00524128
0.177793
-3.41106e-05
0.004887
0.164724
0.00446952
0.148939
-2.70071e-08
6.73627e-05
0.00565867
0.165825
-2.10271e-09
9.90539e-05
0.00615278
0.183711
9.31848e-05
0.00656743
0.198404
5.57597e-05
0.00686288
0.20886
-1.78873e-08
0.00701698
0.214294
-5.57953e-05
0.00701699
0.214294
-9.32199e-05
0.00686289
0.20886
-9.90881e-05
0.00656744
0.198404
-6.73952e-05
0.00615278
0.183711
0.00565868
0.165824
-3.2078e-08
0.000108382
0.00638692
0.17302
-2.76093e-09
0.000158472
0.00689967
0.192171
0.000148503
0.00732343
0.207769
8.85524e-05
0.0076209
0.218804
-2.16973e-08
0.00777484
0.22452
-8.85954e-05
0.00777484
0.22452
-0.000148545
0.00762091
0.218804
-0.000158512
0.00732344
0.207769
-0.000108419
0.00689968
0.192171
0.00638693
0.17302
-3.59524e-08
0.000154601
0.00656872
0.171714
-3.57429e-09
0.000224893
0.00704473
0.191466
0.00021018
0.00743062
0.207409
0.000125052
0.0076973
0.21862
-2.54251e-08
0.00783412
0.224404
-0.000125102
0.00783412
0.224404
-0.000210228
0.00769731
0.21862
-0.000224937
0.00743063
0.207409
-0.000154641
0.00704474
0.191466
0.00656873
0.171714
-3.85837e-08
0.00020376
0.00621557
0.163155
-4.59111e-09
0.000295558
0.00661212
0.183022
0.000275547
0.00692702
0.198916
0.000163597
0.00714134
0.210019
-2.87728e-08
0.00725035
0.215726
-0.000163653
0.00725035
0.215726
-0.0002756
0.00714135
0.210019
-0.000295606
0.00692703
0.198916
-0.000203802
0.00661212
0.183022
0.00621557
0.163155
-3.9807e-08
0.000256313
0.00541454
0.148579
-5.77195e-09
0.000369988
0.00570841
0.168251
0.000343273
0.0059375
0.183848
0.000203122
0.00609142
0.194669
-3.13213e-08
0.00616911
0.200207
-0.000203183
0.00616912
0.200207
-0.000343329
0.00609142
0.194669
-0.000370038
0.00593751
0.183848
-0.000256355
0.00570842
0.168251
0.00541454
0.148579
-3.94828e-08
0.000312229
0.129156
-6.89322e-09
0.00430459
0.000446987
0.148508
0.00449039
0.000412476
0.163669
0.00463657
0.000243101
0.174107
0.0047361
-3.23808e-08
0.179425
0.00478628
-0.000243164
0.179425
0.00478628
-0.000412534
0.174107
0.0047361
-0.000447036
0.163668
0.00463657
-0.00031227
0.148508
0.00449039
0.129156
-3.72816e-08
0.00430459
-3.75033e-07
0.000131805
0.0304381
-1.71745e-10
-1.01573e-06
0.000146342
0.033595
-7.98914e-07
0.000159132
0.0362485
-4.5207e-07
0.000169195
0.0381672
-1.66677e-09
0.00017458
0.0391742
4.48702e-07
0.00017458
0.0391742
7.95506e-07
0.000169195
0.0381672
1.01217e-06
0.000159133
0.0362485
3.71383e-07
0.000146343
0.033595
0.000131805
0.0304381
-3.59889e-09
1.5744e-06
0.000522337
0.0816668
-4.34605e-10
1.45578e-06
0.000578676
0.090142
1.37597e-06
0.000627808
0.0972403
8.43827e-07
0.000664984
0.102358
-4.78811e-09
0.00068484
0.10504
-8.53456e-07
0.000684841
0.10504
-1.38564e-06
0.000664985
0.102358
-1.46543e-06
0.000627809
0.0972403
-1.58387e-06
0.000578677
0.090142
0.000522338
0.0816668
-9.60328e-09
7.17232e-06
0.00107536
0.120745
-7.58388e-10
9.65458e-06
0.00118769
0.133393
8.91656e-06
0.00128491
0.143932
5.31888e-06
0.00135708
0.151505
-7.75055e-09
0.00139546
0.155464
-5.33441e-06
0.00139546
0.155464
-8.93206e-06
0.00135708
0.151505
-9.67005e-06
0.00128491
0.143932
-7.18733e-06
0.00118769
0.133393
0.00107536
0.120745
-1.49347e-08
1.6872e-05
0.00166577
0.148332
-1.10821e-09
2.41081e-05
0.00183192
0.164073
2.24251e-05
0.0019745
0.177105
1.33564e-05
0.00207881
0.186429
-1.05986e-08
0.00213396
0.191291
-1.33776e-05
0.00213396
0.191291
-2.24461e-05
0.00207881
0.186429
-2.41287e-05
0.0019745
0.177105
-1.68918e-05
0.00183193
0.164073
0.00166577
0.148332
-1.94959e-08
3.06985e-05
0.00217757
0.165282
-1.50208e-09
4.45686e-05
0.002382
0.183147
4.16065e-05
0.00255547
0.197826
2.47756e-05
0.00268063
0.208275
-1.33381e-08
0.00274636
0.213707
-2.48021e-05
0.00274636
0.213707
-4.16326e-05
0.00268063
0.208275
-4.45938e-05
0.00255547
0.197826
-3.07223e-05
0.002382
0.183147
0.00217757
0.165282
-2.32836e-08
4.82059e-05
0.00252318
0.172626
-1.94757e-09
7.01983e-05
0.0027428
0.191788
6.55996e-05
0.0029265
0.207402
3.90465e-05
0.00305715
0.218454
-1.59766e-08
0.00312524
0.22418
-3.90781e-05
0.00312524
0.22418
-6.56304e-05
0.00305715
0.218454
-7.02276e-05
0.00292651
0.207402
-4.8233e-05
0.0027428
0.191788
0.00252318
0.172626
-2.62529e-08
6.85187e-05
0.00265358
0.171515
-2.47405e-09
9.97094e-05
0.00286406
0.191314
9.31591e-05
0.00303703
0.207305
5.54101e-05
0.00315819
0.218556
-1.8492e-08
0.00322081
0.224364
-5.54466e-05
0.00322081
0.224364
-9.31942e-05
0.00315819
0.218556
-9.97421e-05
0.00303703
0.207305
-6.85483e-05
0.00286406
0.191314
0.00265359
0.171515
-2.83986e-08
9.07217e-05
0.00256
0.163157
-3.09873e-09
0.000131863
0.00274088
0.183104
0.00012303
0.00288662
0.199075
7.30727e-05
0.00298713
0.21024
-2.07281e-08
0.0030386
0.215981
-7.31134e-05
0.0030386
0.215981
-0.000123069
0.00298713
0.21024
-0.000131899
0.00288663
0.199075
-9.07529e-05
0.00274088
0.183104
0.00256
0.163157
-2.96314e-08
0.000114704
0.00226872
0.148755
-3.79648e-09
0.000165896
0.00240738
0.168533
0.000154113
0.00251665
0.184229
9.12699e-05
0.00259083
0.195128
-2.24699e-08
0.00262848
0.200708
-9.13139e-05
0.00262848
0.200708
-0.000154154
0.00259083
0.195128
-0.000165933
0.00251666
0.184229
-0.000114736
0.00240739
0.168533
0.00226873
0.148755
-2.98903e-08
0.000138626
0.129452
-4.4357e-09
0.00183411
0.000199408
0.14893
0.0019245
0.000184666
0.164204
0.00199575
0.000109084
0.174729
0.00204451
-2.33971e-08
0.180093
0.00206921
-0.00010913
0.180093
0.00206921
-0.000184709
0.174729
0.00204451
-0.000199445
0.164204
0.00199575
-0.000138657
0.14893
0.0019245
0.129452
-2.90201e-08
0.00183411
-1.08573e-06
5.61686e-05
0.030383
-1.13908e-10
-1.5912e-06
6.16071e-05
0.0335339
-1.31836e-06
6.62352e-05
0.036182
-7.41145e-07
6.98078e-05
0.0380968
-1.27277e-09
7.16872e-05
0.0391018
7.38598e-07
7.16873e-05
0.0391018
1.31584e-06
6.98078e-05
0.0380968
1.58867e-06
6.62354e-05
0.036182
1.08325e-06
6.16073e-05
0.0335339
5.61688e-05
0.030383
-2.4467e-09
-1.44393e-06
0.000205847
0.0815186
-3.168e-10
-2.21706e-06
0.000227054
0.0899773
-1.88334e-06
0.000245349
0.0970608
-1.04897e-06
0.000259163
0.102168
-3.61788e-09
0.000266504
0.104844
1.04173e-06
0.000266504
0.104844
1.87625e-06
0.000259163
0.102168
2.20999e-06
0.00024535
0.0970608
1.43708e-06
0.000227054
0.0899773
0.000205847
0.0815186
-6.63601e-09
9.93788e-08
0.000417782
0.120533
-5.40924e-10
-3.79407e-08
0.000461334
0.133159
6.83266e-08
0.000498865
0.143678
1.17423e-07
0.000526744
0.151237
-5.79369e-09
0.000541584
0.155189
-1.28944e-07
0.000541584
0.155189
-8.02644e-08
0.000526744
0.151237
2.67355e-08
0.000498865
0.143678
-1.10041e-07
0.000461335
0.133159
0.000417783
0.120533
-1.03637e-08
3.37186e-06
0.000650533
0.148096
-7.71261e-10
4.8876e-06
0.000716883
0.163816
4.70922e-06
0.000773794
0.176831
2.87786e-06
0.000815581
0.186142
-7.86384e-09
0.000837725
0.190998
-2.89352e-06
0.000837725
0.190998
-4.72453e-06
0.000815582
0.186142
-4.90251e-06
0.000773795
0.176831
-3.3859e-06
0.000716884
0.163816
0.000650534
0.148096
-1.3595e-08
8.59693e-06
0.000860261
0.165064
-1.01958e-09
1.26313e-05
0.000944331
0.182915
1.19677e-05
0.00101579
0.197584
7.20168e-06
0.00106762
0.208027
-9.80007e-09
0.00109492
0.213457
-7.22113e-06
0.00109492
0.213457
-1.19867e-05
0.00106762
0.208027
-1.26495e-05
0.00101579
0.197584
-8.61394e-06
0.000944333
0.182915
0.000860264
0.165064
-1.63386e-08
1.55519e-05
0.0010104
0.17246
-1.28971e-09
2.28588e-05
0.00110334
0.191622
2.15601e-05
0.00118132
0.207238
1.29138e-05
0.00123712
0.218293
-1.16209e-08
0.00126632
0.224021
-1.29368e-05
0.00126632
0.224021
-2.15824e-05
0.00123712
0.218293
-2.288e-05
0.00118132
0.207238
-1.55714e-05
0.00110334
0.191622
0.0010104
0.17246
-1.8551e-08
2.39201e-05
0.00107737
0.171424
-1.59775e-09
3.5095e-05
0.00116895
0.191237
3.30225e-05
0.00124455
0.207244
1.97307e-05
0.00129787
0.218509
-1.33259e-08
0.00132553
0.224325
-1.9757e-05
0.00132553
0.224325
-3.30478e-05
0.00129787
0.218509
-3.51186e-05
0.00124455
0.207244
-2.39415e-05
0.00116895
0.191237
0.00107737
0.171424
-2.02481e-08
3.33764e-05
0.00105303
0.163148
-1.94965e-09
4.88756e-05
0.00113394
0.183124
4.58643e-05
0.00119951
0.199123
2.73361e-05
0.00124506
0.210312
-1.48443e-08
0.00126847
0.216065
-2.73654e-05
0.00126847
0.216065
-4.58922e-05
0.00124506
0.210311
-4.89013e-05
0.00119951
0.199123
-3.33992e-05
0.00113394
0.183124
0.00105303
0.163148
-2.13938e-08
4.39637e-05
0.000944001
0.14882
-2.32715e-09
6.39465e-05
0.0010079
0.168639
5.96587e-05
0.00105856
0.184375
3.5423e-05
0.00109318
0.195304
-1.6079e-08
0.00111081
0.200901
-3.54546e-05
0.00111081
0.200901
-5.96885e-05
0.00109318
0.195304
-6.39736e-05
0.00105856
0.184375
-4.39873e-05
0.0010079
0.168639
0.000944002
0.14882
-2.19559e-08
5.48799e-05
0.129571
-2.66022e-09
0.00077006
7.9326e-05
0.149101
0.000813117
7.37417e-05
0.164421
0.000847229
4.36586e-05
0.174982
0.000870665
-1.68884e-08
0.180365
0.00088257
-4.36917e-05
0.180365
0.00088257
-7.37727e-05
0.174982
0.000870665
-7.93537e-05
0.164421
0.000847229
-5.49036e-05
0.1491
0.000813117
0.129571
-2.18684e-08
0.000770059
-2.10201e-07
1.42134e-05
0.030369
-6.92761e-11
-3.59979e-07
1.58003e-05
0.0335182
-2.99652e-07
1.72414e-05
0.0361647
-1.71038e-07
1.84163e-05
0.0380783
-9.35209e-10
1.90496e-05
0.0390826
1.69173e-07
1.90496e-05
0.0390826
2.97826e-07
1.84164e-05
0.0380783
3.58192e-07
1.72415e-05
0.0361647
2.08518e-07
1.58004e-05
0.0335182
1.42136e-05
0.030369
-1.62086e-09
-2.13029e-07
6.35803e-05
0.0814694
-2.02937e-10
-4.50454e-07
7.07889e-05
0.0899226
-4.00269e-07
7.71759e-05
0.0970009
-2.28429e-07
8.21113e-05
0.102104
-2.64112e-09
8.47682e-05
0.104778
2.23168e-07
8.47683e-05
0.104778
3.95141e-07
8.21114e-05
0.102104
4.45455e-07
7.71763e-05
0.0970009
2.08199e-07
7.07894e-05
0.0899226
6.35806e-05
0.0814694
-4.43284e-09
3.82077e-07
0.000139835
0.120457
-3.46137e-10
3.88749e-07
0.000155527
0.133074
3.55786e-07
0.000169281
0.143586
2.18006e-07
0.00017967
0.151139
-4.21643e-09
0.000185243
0.155088
-2.26388e-07
0.000185243
0.155088
-3.6396e-07
0.000179671
0.151139
-3.96588e-07
0.000169282
0.143586
-3.89259e-07
0.000155528
0.133074
0.000139836
0.120457
-6.92532e-09
1.68186e-06
0.000227793
0.148006
-4.93708e-10
2.3165e-06
0.000252639
0.163718
2.15063e-06
0.000274223
0.176726
1.28449e-06
0.000290277
0.186032
-5.68418e-09
0.000298841
0.190886
-1.29577e-06
0.000298842
0.190886
-2.16161e-06
0.000290278
0.186032
-2.327e-06
0.000274223
0.176726
-1.69157e-06
0.00025264
0.163718
0.000227795
0.148006
-9.16934e-09
3.74583e-06
0.000310659
0.164977
-6.49011e-10
5.38435e-06
0.00034308
0.182823
5.03064e-06
0.000370945
0.197488
3.00121e-06
0.000391388
0.207928
-7.04067e-09
0.000402223
0.213356
-3.01516e-06
0.000402224
0.213356
-5.04418e-06
0.000391388
0.207928
-5.3972e-06
0.000370946
0.197488
-3.75763e-06
0.000343081
0.182823
0.000310661
0.164977
-1.11083e-08
6.54501e-06
0.000373497
0.172391
-8.1207e-10
9.52821e-06
0.000410225
0.191552
8.92922e-06
0.000441369
0.207168
5.32677e-06
0.000463901
0.218224
-8.29254e-09
0.000475757
0.223953
-5.34317e-06
0.000475757
0.223953
-8.94506e-06
0.000463902
0.218224
-9.54311e-06
0.000441371
0.207168
-6.55858e-06
0.000410226
0.191552
0.000373499
0.172391
-1.27126e-08
9.97687e-06
0.000405802
0.171381
-9.88705e-10
1.45834e-05
0.000442776
0.1912
1.36807e-05
0.000473618
0.207213
8.15797e-06
0.0004956
0.218483
-9.44735e-09
0.000507069
0.224302
-8.17661e-06
0.000507069
0.224302
-1.36986e-05
0.000495601
0.218483
-1.46001e-05
0.000473619
0.207213
-9.9919e-06
0.000442778
0.1912
0.000405803
0.171381
-1.40033e-08
1.39141e-05
0.000402907
0.163137
-1.17745e-09
2.03496e-05
0.00043624
0.183124
1.90682e-05
0.000463517
0.199134
1.13542e-05
0.000482637
0.210332
-1.04802e-08
0.000492514
0.216091
-1.13749e-05
0.000492514
0.216091
-1.9088e-05
0.000482637
0.210332
-2.03677e-05
0.000463518
0.199134
-1.39303e-05
0.000436242
0.183124
0.000402908
0.163137