/*--------------------------------*- C++ -*----------------------------------*\
| =========                 |                                                 |
| \\      /  F ield         | OpenFOAM: The Open Source CFD Toolbox           |
|  \\    /   O peration     | Version:  2106                                  |
|   \\  /    A nd           | Website:  www.openfoam.com                      |
|    \\/     M anipulation  |                                                 |
\*---------------------------------------------------------------------------*/
FoamFile
{
    version     2.0;
    format      ascii;
    arch        "LSB;label=32;scalar=64";
    class       surfaceScalarField;
    location    "0.2";
    object      phi;
}
// * * * * * * * * * * * * * * * * * * * * * * * * * * * * * * * * * * * * * //

dimensions      [0 3 -1 0 0 0 0];

oriented        oriented;

internalField   nonuniform List<scalar> 
29100
(
0.00109832
0.137604
0.0764785
-2.3986e-10
0.00135463
0.141961
0.0840456
0.00116274
0.144998
0.0903686
0.000662304
0.147013
0.094894
-1.49446e-09
0.148023
0.0972508
-0.000662306
0.148023
0.0972508
-0.00116275
0.147013
0.094894
-0.00135463
0.144998
0.0903686
-0.00109832
0.141961
0.0840456
0.137604
0.0764785
-5.85291e-09
0.00217455
0.188335
0.146697
-5.99006e-10
0.00302119
0.192192
0.159434
0.00269404
0.194717
0.169851
0.0015581
0.196265
0.177216
-3.92574e-09
0.197017
0.181022
-0.0015581
0.197017
0.181022
-0.00269405
0.196265
0.177216
-0.0030212
0.194717
0.169851
-0.00217456
0.192192
0.159434
0.188335
0.146697
-1.32529e-08
0.00273896
0.195742
0.173878
-7.53701e-10
0.00387312
0.197862
0.187954
0.00347451
0.199143
0.199284
0.00201131
0.199765
0.20722
-5.81358e-09
0.200036
0.211298
-0.00201132
0.200036
0.211298
-0.00347453
0.199765
0.20722
-0.00387314
0.199143
0.199284
-0.00273898
0.197862
0.187954
0.195742
0.173878
-1.94425e-08
0.00308249
0.18113
0.179975
-9.80128e-10
0.00429625
0.181579
0.194075
0.0038437
0.181702
0.205273
0.00222018
0.181516
0.213056
-8.01562e-09
0.181371
0.217036
-0.0022202
0.181371
0.217036
-0.00384371
0.181516
0.213056
-0.00429627
0.181702
0.205273
-0.00308252
0.181579
0.194075
0.18113
0.179975
-2.45201e-08
0.00323288
0.156544
0.17422
-1.33515e-09
0.00443992
0.155765
0.187859
0.00395854
0.155061
0.198571
0.00228247
0.154333
0.205966
-1.07566e-08
0.153917
0.209735
-0.00228249
0.153917
0.209735
-0.00395856
0.154333
0.205966
-0.00443995
0.155061
0.198571
-0.00323291
0.155765
0.187859
0.156544
0.17422
-2.91606e-08
0.00324622
0.128827
0.16176
-1.71871e-09
0.00440795
0.127303
0.174802
0.00391855
0.126116
0.18495
0.002257
0.125113
0.191916
-1.43202e-08
0.124565
0.195453
-0.00225703
0.124565
0.195453
-0.00391858
0.125113
0.191916
-0.00440798
0.126116
0.18495
-0.00324625
0.127303
0.174802
0.128827
0.16176
-3.35389e-08
0.00318824
0.101711
0.14564
-2.24878e-09
0.00429201
0.0998451
0.158102
0.00380634
0.0984586
0.167728
0.00219119
0.0973874
0.174299
-1.89911e-08
0.0968198
0.177628
-0.00219123
0.0968198
0.177628
-0.00380638
0.0973874
0.174299
-0.00429205
0.0984585
0.167728
-0.00318828
0.099845
0.158102
0.101711
0.14564
-3.79247e-08
0.00309261
0.0771002
0.127652
-3.1141e-09
0.00415189
0.0751694
0.139612
0.00367975
0.0737896
0.148794
0.0021187
0.0728006
0.155032
-2.50953e-08
0.0722927
0.158184
-0.00211875
0.0722927
0.158184
-0.0036798
0.0728005
0.155032
-0.00415194
0.0737896
0.148794
-0.00309265
0.0751694
0.139612
0.0771002
0.127652
-4.24409e-08
0.00299876
0.0558232
0.108833
-3.7544e-09
0.00404721
0.0539876
0.120376
0.00358842
0.0527757
0.129194
0.00206549
0.0519747
0.135158
-3.2578e-08
0.0515778
0.138165
-0.00206556
0.0515778
0.138165
-0.00358849
0.0519747
0.135158
-0.00404727
0.0527757
0.129194
-0.00299881
0.0539876
0.120376
0.0558232
0.108833
-4.67463e-08
0.00313708
0.0897732
-4.08213e-09
0.0378901
0.00413926
0.10097
0.0365059
0.0036204
0.109486
0.0355984
0.00206623
0.115223
0.0350402
-4.06453e-08
0.118109
0.0347658
-0.00206631
0.118109
0.0347658
-0.00362047
0.115223
0.0350402
-0.00413933
0.109486
0.0355984
-0.00313713
0.10097
0.0365058
0.0897731
-4.98696e-08
0.0378901
-0.000225801
0.0322278
0.0444765
-4.88982e-10
-0.000227096
0.0349967
0.0490502
-0.000160277
0.0373383
0.0529634
-7.99136e-05
0.0390081
0.0558055
-1.63064e-09
0.0398709
0.0572999
7.99097e-05
0.0398709
0.0572999
0.000160273
0.0390081
0.0558055
0.000227091
0.0373383
0.0529634
0.000225794
0.0349967
0.0490502
0.0322278
0.0444765
-7.52936e-09
1.62451e-05
0.0694041
0.109504
-6.62628e-10
0.000172847
0.0742305
0.120043
0.000224597
0.0782422
0.128895
0.000155213
0.0810399
0.135254
-4.67677e-09
0.0824734
0.138575
-0.000155224
0.0824734
0.138575
-0.000224609
0.0810399
0.135254
-0.000172861
0.0782422
0.128895
-1.62615e-05
0.0742305
0.120043
0.0694041
0.109504
-1.85748e-08
0.000457763
0.0941394
0.148685
-9.85726e-10
0.000796325
0.099436
0.16241
0.000790097
0.103775
0.173757
0.000486337
0.106732
0.181832
-8.304e-09
0.108233
0.186025
-0.000486355
0.108233
0.186025
-0.000790116
0.106732
0.181832
-0.000796348
0.103775
0.173757
-0.000457788
0.099436
0.16241
0.0941394
0.148685
-2.82427e-08
0.000940636
0.105371
0.167803
-1.28416e-09
0.00144589
0.110091
0.182915
0.00136729
0.1139
0.195227
0.000818786
0.116427
0.20391
-1.22952e-08
0.117692
0.208396
-0.000818811
0.117692
0.208396
-0.00136732
0.116427
0.20391
-0.00144592
0.1139
0.195227
-0.000940669
0.110091
0.182915
0.105371
0.167803
-3.62652e-08
0.00139324
0.105416
0.172782
-1.68417e-09
0.0020325
0.109071
0.18824
0.0018797
0.111963
0.200661
0.00111072
0.113816
0.209346
-1.69425e-08
0.114727
0.21381
-0.00111075
0.114727
0.21381
-0.00187974
0.113816
0.209346
-0.00203254
0.111963
0.200661
-0.00139328
0.109071
0.18824
0.105416
0.172782
-4.3151e-08
0.0017809
0.0974397
0.167956
-2.20195e-09
0.00252262
0.0999329
0.183198
0.00230248
0.101843
0.195291
0.00134999
0.103006
0.203678
-2.2653e-08
0.103563
0.207968
-0.00135004
0.103563
0.207968
-0.00230253
0.103006
0.203678
-0.00252266
0.101843
0.195291
-0.00178095
0.0999329
0.183198
0.0974397
0.167956
-4.89229e-08
0.0020894
0.084491
0.156499
-3.07988e-09
0.00291095
0.0859473
0.171266
0.00263717
0.0869936
0.182851
0.00153952
0.0875785
0.190825
-2.95761e-08
0.0878441
0.194886
-0.00153958
0.0878441
0.194886
-0.00263723
0.0875785
0.190825
-0.002911
0.0869936
0.182851
-0.00208946
0.0859473
0.171266
0.084491
0.156499
-5.36216e-08
0.00231941
0.0691099
0.140713
-4.38528e-09
0.00321444
0.0697339
0.15493
0.00290445
0.0701223
0.165975
0.00169241
0.0702962
0.173526
-3.77016e-08
0.070364
0.177356
-0.00169248
0.070364
0.177356
-0.00290452
0.0702962
0.173526
-0.00321451
0.0701223
0.165975
-0.00231947
0.0697339
0.15493
0.0691099
0.140713
-5.67826e-08
0.0025066
0.0532052
0.122232
-6.06598e-09
0.00348558
0.0532089
0.135923
0.00314706
0.0531834
0.146471
0.00183103
0.0531314
0.153639
-4.61025e-08
0.0530984
0.157262
-0.00183112
0.0530984
0.157262
-0.00314715
0.0531314
0.153639
-0.00348565
0.0531834
0.146471
-0.00250667
0.0532089
0.135923
0.0532052
0.122232
-5.84977e-08
0.002806
0.102175
-8.21551e-09
0.0379976
0.00385767
0.115412
0.037715
0.00344844
0.125537
0.0375419
0.00199233
0.132377
0.0374336
-5.25705e-08
0.135824
0.0373767
-0.00199243
0.135824
0.0373767
-0.00344853
0.132377
0.0374336
-0.00385775
0.125537
0.0375419
-0.00280606
0.115412
0.037715
0.102175
-5.73847e-08
0.0379976
4.25202e-05
0.00789808
0.0365359
-2.74723e-10
4.04418e-05
0.00871644
0.0403358
3.32475e-05
0.00941327
0.0435573
1.82924e-05
0.00993058
0.0458899
-1.84607e-09
0.0102033
0.0471149
-1.82956e-05
0.0102033
0.0471149
-3.32514e-05
0.00993058
0.0458899
-4.04469e-05
0.00941327
0.0435573
-4.25263e-05
0.00871645
0.0403358
0.00789808
0.0365359
-7.23135e-09
0.000244813
0.0236172
0.0935402
-6.75166e-10
0.000328717
0.0256812
0.102995
0.000291222
0.0274097
0.110936
0.000169088
0.0286524
0.116654
-5.2641e-09
0.029301
0.119646
-0.000169097
0.029301
0.119646
-0.000291233
0.0286524
0.116654
-0.000328731
0.0274097
0.110936
-0.000244829
0.0256812
0.102995
0.0236173
0.0935402
-1.76571e-08
0.000491602
0.0391749
0.132636
-1.03622e-09
0.000691438
0.0420849
0.145806
0.000622805
0.0444834
0.156752
0.000363837
0.0461636
0.164579
-8.64739e-09
0.0470313
0.168658
-0.000363854
0.0470313
0.168658
-0.000622824
0.0461636
0.164579
-0.000691459
0.0444834
0.156752
-0.000491626
0.042085
0.145806
0.0391749
0.132636
-2.69927e-08
0.000758725
0.0501637
0.156055
-1.51241e-09
0.00108103
0.0533149
0.171363
0.000982558
0.0558738
0.183935
0.00057534
0.0576238
0.192857
-1.24716e-08
0.0585171
0.197485
-0.000575365
0.0585171
0.197485
-0.000982584
0.0576238
0.192857
-0.00108106
0.0558739
0.183935
-0.000758757
0.0533149
0.171363
0.0501637
0.156055
-3.45538e-08
0.00102704
0.055394
0.166525
-2.11932e-09
0.00146105
0.058297
0.182824
0.00133144
0.0606168
0.196047
0.000779797
0.0621634
0.205358
-1.68011e-08
0.0629424
0.210165
-0.000779831
0.0629424
0.210165
-0.00133147
0.0621634
0.205358
-0.00146109
0.0606168
0.196047
-0.00102708
0.0582971
0.182824
0.055394
0.166525
-4.06478e-08
0.00128293
0.0552826
0.166785
-2.85872e-09
0.00181197
0.057648
0.183318
0.00165008
0.0594983
0.196571
0.000965715
0.060697
0.205829
-2.18024e-08
0.0612911
0.210585
-0.000965759
0.0612911
0.210585
-0.00165012
0.060697
0.205829
-0.00181202
0.0594983
0.196571
-0.00128297
0.057648
0.183318
0.0552826
0.166785
-4.5312e-08
0.00151163
0.0509732
0.159297
-4.00038e-09
0.00212073
0.0526902
0.175615
0.00192891
0.0539926
0.188548
0.00112817
0.0548087
0.197514
-2.74218e-08
0.0552058
0.202099
-0.00112822
0.0552058
0.202099
-0.00192896
0.0548087
0.197514
-0.00212078
0.0539926
0.188548
-0.00151168
0.0526902
0.175615
0.0509732
0.159297
-4.85107e-08
0.00170412
0.0438364
0.146146
-5.76538e-09
0.00238577
0.0449146
0.162024
0.00216955
0.0457027
0.174482
0.00126859
0.04618
0.183056
-3.3324e-08
0.0464084
0.187422
-0.00126866
0.0464084
0.187422
-0.00216961
0.04618
0.183056
-0.00238583
0.0457027
0.174482
-0.00170417
0.0449146
0.162024
0.0438365
0.146146
-4.96913e-08
0.00187313
0.0351807
0.129014
-7.9881e-09
0.00262682
0.0357035
0.14438
0.00238717
0.0360864
0.156327
0.00139446
0.0363155
0.164496
-3.86843e-08
0.0364247
0.16864
-0.00139454
0.0364247
0.16864
-0.00238724
0.0363155
0.164496
-0.00262688
0.0360864
0.156327
-0.00187318
0.0357036
0.14438
0.0351807
0.129014
-4.86885e-08
0.00208827
0.109201
-9.39591e-09
0.0260658
0.00289735
0.124083
0.0262243
0.00261365
0.135548
0.0263583
0.00151905
0.143338
0.0264492
-4.16466e-08
0.147275
0.0264926
-0.00151913
0.147275
0.0264926
-0.00261372
0.143338
0.0264492
-0.00289741
0.135548
0.0263583
-0.00208832
0.124083
0.0262243
0.109201
-4.36743e-08
0.0260659
-2.93837e-05
0.00307383
0.0334915
-3.14319e-10
-4.16837e-05
0.0033811
0.036967
-3.4409e-05
0.00364217
0.0399079
-1.91383e-05
0.0038352
0.0420394
-1.28735e-09
0.00393611
0.0431597
1.91353e-05
0.00393611
0.0431597
3.44056e-05
0.0038352
0.0420394
4.16796e-05
0.00364217
0.0399079
2.93787e-05
0.0033811
0.036967
0.00307383
0.0334915
-5.94635e-09
-7.18517e-06
0.00919801
0.0874232
-5.9689e-10
-7.64936e-06
0.0100547
0.0963215
-2.72134e-06
0.0107817
0.103792
5.87564e-07
0.0113084
0.109178
-3.70021e-09
0.011584
0.111999
-5.95991e-07
0.011584
0.111999
2.71197e-06
0.0113085
0.109178
7.63753e-06
0.0107817
0.103792
7.17184e-06
0.0100547
0.0963215
0.00919801
0.0874232
-1.47085e-08
6.59587e-05
0.0159276
0.12584
-9.26655e-10
0.000101562
0.0172874
0.138538
9.90315e-05
0.018432
0.149104
6.11113e-05
0.0192478
0.156678
-6.68548e-09
0.0196722
0.160631
-6.11257e-05
0.0196722
0.160631
-9.90473e-05
0.0192478
0.156678
-0.00010158
0.018432
0.149104
-6.59786e-05
0.0172874
0.138538
0.0159276
0.12584
-2.23465e-08
0.000175238
0.0215353
0.150272
-1.30299e-09
0.00026209
0.0231876
0.165376
0.000247918
0.0245624
0.177818
0.000149111
0.0255257
0.186678
-9.83802e-09
0.0260231
0.191283
-0.000149132
0.0260231
0.191283
-0.00024794
0.0255257
0.186678
-0.000262114
0.0245624
0.177818
-0.000175264
0.0231876
0.165376
0.0215353
0.150272
-2.84745e-08
0.000307992
0.0250723
0.16268
-1.80049e-09
0.000451844
0.0267725
0.179095
0.000422555
0.0281659
0.192473
0.000251792
0.0291245
0.20193
-1.32879e-08
0.0296149
0.206825
-0.000251819
0.0296149
0.206825
-0.000422584
0.0291245
0.20193
-0.000451874
0.0281659
0.192473
-0.000308023
0.0267725
0.179095
0.0250723
0.16268
-3.33149e-08
0.000452206
0.0262557
0.165149
-2.56538e-09
0.000653289
0.027803
0.182086
0.000606434
0.0290457
0.195738
0.00035947
0.0298837
0.205316
-1.71243e-08
0.0303076
0.210252
-0.000359505
0.0303076
0.210252
-0.00060647
0.0298837
0.205316
-0.000653324
0.0290458
0.195738
-0.000452241
0.027803
0.182086
0.0262557
0.165149
-3.67376e-08
0.000596269
0.025263
0.159693
-3.69638e-09
0.000852631
0.0265287
0.176633
0.000787792
0.0275186
0.19014
0.000465511
0.0281719
0.199548
-2.12323e-08
0.0284987
0.204374
-0.000465554
0.0284987
0.204374
-0.000787834
0.0281719
0.199548
-0.000852671
0.0275186
0.19014
-0.000596307
0.0265288
0.176633
0.025263
0.159693
-3.85902e-08
0.000732476
0.0225428
0.148134
-5.01296e-09
0.00104355
0.023467
0.164775
0.000961862
0.0241694
0.177912
0.000567243
0.0246245
0.186998
-2.52318e-08
0.0248501
0.191638
-0.000567293
0.0248501
0.191638
-0.000961909
0.0246246
0.186998
-0.00104359
0.0241695
0.177912
-0.000732514
0.023467
0.164775
0.0225428
0.148134
-3.84683e-08
0.000866524
0.0186585
0.132032
-6.68051e-09
0.00123349
0.0192409
0.148239
0.0011333
0.0196796
0.160917
0.000666519
0.0199624
0.169625
-2.82995e-08
0.0201023
0.174054
-0.000666575
0.0201023
0.174054
-0.00113335
0.0199624
0.169625
-0.00123353
0.0196796
0.160917
-0.000866561
0.0192409
0.148239
0.0186586
0.132032
-3.63971e-08
0.00102833
0.112663
-8.63856e-09
0.0141685
0.0014467
0.128431
0.0144745
0.00131772
0.140641
0.0147161
0.000770314
0.148969
0.0148788
-2.89995e-08
0.153188
0.0149593
-0.00077037
0.153188
0.0149593
-0.00131777
0.148969
0.0148788
-0.00144674
0.140641
0.0147161
-0.00102836
0.128431
0.0144745
0.112663
-3.09568e-08
0.0141685
4.24029e-06
0.000839951
0.0326473
-2.09784e-10
2.54372e-06
0.000936247
0.0360324
1.99988e-06
0.00102094
0.0388875
1.01252e-06
0.00108598
0.0409545
-1.22425e-09
0.00112073
0.04204
-1.01493e-06
0.00112073
0.04204
-2.00269e-06
0.00108598
0.0409545
-2.54691e-06
0.00102094
0.0388875
-4.24419e-06
0.000936248
0.0360324
0.000839952
0.0326473
-4.56456e-09
2.51154e-05
0.00302841
0.0852096
-4.78272e-10
3.10721e-05
0.00334261
0.0939092
2.73386e-05
0.00361445
0.101202
1.58275e-05
0.00381624
0.106459
-3.30618e-09
0.0039232
0.109212
-1.58342e-05
0.0039232
0.109212
-2.73463e-05
0.00381624
0.106459
-3.10809e-05
0.00361445
0.101202
-2.51253e-05
0.00334261
0.0939092
0.00302841
0.0852096
-1.11178e-08
6.01008e-05
0.00578653
0.123022
-7.55417e-10
8.29153e-05
0.00633662
0.135521
7.50434e-05
0.00680674
0.14592
4.40577e-05
0.00714835
0.153377
-5.64668e-09
0.00732812
0.15727
-4.40692e-05
0.00732812
0.15727
-7.5056e-05
0.00714835
0.153377
-8.29292e-05
0.00680674
0.14592
-6.01163e-05
0.00633663
0.135521
0.00578653
0.123022
-1.71011e-08
0.000109085
0.0083708
0.147579
-1.12563e-09
0.000155835
0.00909533
0.16257
0.000143122
0.00970704
0.174931
8.4455e-05
0.0101438
0.183741
-8.02611e-09
0.0103718
0.188324
-8.44713e-05
0.0103718
0.188324
-0.00014314
0.0101438
0.183741
-0.000155854
0.00970705
0.174931
-0.000109105
0.00909534
0.16257
0.00837081
0.147579
-2.1822e-08
0.000169802
0.010272
0.160609
-1.59343e-09
0.000244697
0.0110722
0.177043
0.000225977
0.0117385
0.19046
0.000133558
0.0122061
0.19996
-1.04865e-08
0.0124481
0.204882
-0.000133579
0.0124481
0.204882
-0.000225998
0.0122061
0.19996
-0.000244719
0.0117385
0.19046
-0.000169825
0.0110722
0.177043
0.010272
0.160609
-2.54835e-08
0.000238676
0.0112308
0.163952
-2.16786e-09
0.000343561
0.0120073
0.181046
0.000317653
0.0126427
0.19486
0.000187752
0.0130808
0.204572
-1.30586e-08
0.0133054
0.209582
-0.000187778
0.0133054
0.209582
-0.000317679
0.0130809
0.204572
-0.000343588
0.0126427
0.19486
-0.000238703
0.0120073
0.181046
0.0112308
0.163952
-2.80376e-08
0.000311152
0.0112048
0.159408
-2.95808e-09
0.000446425
0.0118792
0.176625
0.00041266
0.0124195
0.190397
0.000243805
0.0127855
0.200012
-1.56428e-08
0.0129712
0.204952
-0.000243836
0.0129712
0.204952
-0.000412691
0.0127855
0.200012
-0.000446454
0.0124195
0.190397
-0.00031118
0.0118793
0.176625
0.0112048
0.159408
-2.93469e-08
0.000383386
0.0103115
0.148644
-4.04818e-09
0.000549247
0.0108356
0.165653
0.000507388
0.0112461
0.179128
0.000299537
0.0115198
0.188471
-1.79683e-08
0.0116574
0.193252
-0.000299572
0.0116574
0.193252
-0.000507422
0.0115198
0.188471
-0.000549278
0.0112461
0.179128
-0.000383414
0.0108356
0.165653
0.0103115
0.148644
-2.91761e-08
0.000456147
0.008767
0.13312
-5.48782e-09
0.000652243
0.00912442
0.149754
0.000600889
0.00940065
0.162814
0.000353986
0.00958308
0.171809
-1.955e-08
0.00967436
0.176391
-0.000354024
0.00967437
0.176391
-0.000600924
0.00958308
0.171809
-0.000652274
0.00940066
0.162814
-0.000456173
0.00912443
0.149754
0.00876701
0.13312
-2.73829e-08
0.000534838
0.114066
-6.61326e-09
0.00682961
0.000757273
0.130296
0.00703648
0.000693527
0.142907
0.00719815
0.00040688
0.151531
0.00730781
-1.95676e-08
0.155907
0.00736275
-0.000406918
0.155907
0.00736275
-0.000693561
0.151531
0.00730782
-0.000757302
0.142907
0.00719816
-0.000534861
0.130296
0.00703649
0.114066
-2.34517e-08
0.00682962
-4.42151e-06
0.000376049
0.0322757
-1.41903e-10
-6.70561e-06
0.000413054
0.0356217
-5.62594e-06
0.000444142
0.0384423
-3.17331e-06
0.000467457
0.0404845
-1.02944e-09
0.000479687
0.0415571
3.17119e-06
0.000479687
0.0415571
5.62366e-06
0.000467458
0.0404845
6.70302e-06
0.000444143
0.0384423
4.4186e-06
0.000413055
0.0356217
0.000376049
0.0322757
-3.30202e-09
-3.23165e-06
0.00125035
0.0843385
-2.92446e-10
-5.2372e-06
0.00137363
0.0929506
-4.29314e-06
0.00147856
0.100167
-2.27123e-06
0.00155596
0.105368
-2.72939e-09
0.00159679
0.108093
2.26562e-06
0.00159679
0.108093
4.28716e-06
0.00155596
0.105368
5.23043e-06
0.00147856
0.100167
3.22428e-06
0.00137363
0.0929506
0.00125035
0.0843385
-8.04502e-09
6.43371e-06
0.00236264
0.121903
-5.51109e-10
9.24598e-06
0.00258866
0.134303
9.13661e-06
0.00278104
0.144618
5.74834e-06
0.00292105
0.152015
-4.51393e-09
0.00299475
0.155878
-5.75756e-06
0.00299475
0.155878
-9.1464e-06
0.00292105
0.152015
-9.25665e-06
0.00278105
0.144618
-6.4451e-06
0.00258866
0.134303
0.00236264
0.121903
-1.24157e-08
2.38582e-05
0.00345829
0.146459
-8.03917e-10
3.52777e-05
0.00377143
0.161376
3.35156e-05
0.00403627
0.173677
2.02562e-05
0.00422649
0.182449
-6.25055e-09
0.0043261
0.187013
-2.02689e-05
0.0043261
0.187013
-3.35289e-05
0.00422649
0.182449
-3.52919e-05
0.00403627
0.173677
-2.38731e-05
0.00377143
0.161376
0.0034583
0.146459
-1.59215e-08
4.81484e-05
0.00432692
0.159692
-1.10869e-09
7.0964e-05
0.00469081
0.176101
6.68566e-05
0.00499526
0.189505
4.00545e-05
0.00521089
0.199002
-7.95375e-09
0.00532302
0.203925
-4.00705e-05
0.00532303
0.203925
-6.68732e-05
0.00521089
0.199002
-7.09812e-05
0.00499526
0.189505
-4.8166e-05
0.00469082
0.176101
0.00432693
0.159692
-1.86672e-08
7.78322e-05
0.00483432
0.163366
-1.51916e-09
0.000113884
0.00520558
0.180496
0.000106792
0.00551154
0.19435
6.3716e-05
0.00572501
0.204101
-9.67388e-09
0.00583513
0.209134
-6.37354e-05
0.00583513
0.209134
-0.000106811
0.00572501
0.204101
-0.000113904
0.00551155
0.19435
-7.78519e-05
0.00520559
0.180496
0.00483432
0.163366
-2.06525e-08
0.000111022
0.00492791
0.159203
-2.07865e-09
0.000161453
0.00526706
0.176514
0.000150927
0.00554129
0.190378
8.98193e-05
0.00572966
0.200069
-1.13468e-08
0.00582602
0.205051
-8.98419e-05
0.00582602
0.205051
-0.000150949
0.00572967
0.200069
-0.000161475
0.00554129
0.190378
-0.000111043
0.00526707
0.176514
0.00492792
0.159203
-2.18212e-08
0.000146134
0.00462678
0.148799
-2.67062e-09
0.000211888
0.00490469
0.165949
0.000197574
0.00512507
0.179558
0.000117316
0.00527432
0.189007
-1.28031e-08
0.00535004
0.193845
-0.000117342
0.00535005
0.193845
-0.000197598
0.00527432
0.189007
-0.000211911
0.00512508
0.179558
-0.000146155
0.0049047
0.165949
0.00462678
0.148799
-2.19789e-08
0.00018392
0.00400281
0.13356
-3.43165e-09
0.000265511
0.00420489
0.150372
0.000246348
0.004363
0.163595
0.000145756
0.004469
0.172715
-1.37228e-08
0.00452245
0.177365
-0.000145783
0.00452245
0.177365
-0.000246374
0.004469
0.172715
-0.000265534
0.00436301
0.163595
-0.00018394
0.00420489
0.150372
0.00400282
0.13356
-2.10262e-08
0.000226773
0.114681
-4.27219e-09
0.00316032
0.000323372
0.131117
0.00328714
0.000297813
0.143909
0.00338701
0.000175316
0.152667
0.00345518
-1.37011e-08
0.157115
0.00348954
-0.000175343
0.157115
0.00348954
-0.000297837
0.152667
0.00345518
-0.000323393
0.143909
0.00338702
-0.000226791
0.131117
0.00328715
0.114681
-1.87039e-08
0.00316032
1.68173e-07
0.000104339
0.0321712
-9.93155e-11
-2.39117e-07
0.000116134
0.0355059
-2.16648e-07
0.000126575
0.0383157
-1.34615e-07
0.00013472
0.0403497
-8.64674e-10
0.000139099
0.0414179
1.32819e-07
0.0001391
0.0414179
2.14791e-07
0.00013472
0.0403497
2.37132e-07
0.000126575
0.0383157
-1.70276e-07
0.000116134
0.0355059
0.000104339
0.0321712
-2.31721e-09
2.2403e-06
0.000411715
0.0840289
-2.15298e-10
2.40695e-06
0.000456065
0.0926105
2.11712e-06
0.000494721
0.0997989
1.23038e-06
0.000523846
0.10498
-2.18582e-09
0.000539395
0.107694
-1.23478e-06
0.000539395
0.107694
-2.12181e-06
0.000523847
0.10498
-2.41198e-06
0.000494722
0.0997989
-2.24559e-06
0.000456066
0.0926105
0.000411715
0.0840289
-5.65688e-09
6.83623e-06
0.000839387
0.121469
-4.02313e-10
9.17273e-06
0.000925675
0.133831
8.3325e-06
0.00100025
0.144113
4.91551e-06
0.00105535
0.151487
-3.55796e-09
0.00108461
0.155338
-4.9227e-06
0.00108461
0.155338
-8.34005e-06
0.00105535
0.151487
-9.18073e-06
0.00100025
0.144113
-6.84456e-06
0.000925676
0.133831
0.000839388
0.121469
-8.79666e-09
1.43215e-05
0.00128614
0.145998
-5.89478e-10
2.03642e-05
0.00141104
0.160885
1.88119e-05
0.00151804
0.173161
1.11543e-05
0.00159594
0.181916
-4.83483e-09
0.00163705
0.186472
-1.1164e-05
0.00163705
0.186472
-1.8822e-05
0.00159594
0.181916
-2.03748e-05
0.00151804
0.173161
-1.43324e-05
0.00141105
0.160885
0.00128614
0.145998
-1.13402e-08
2.46999e-05
0.00166354
0.15929
-8.0049e-10
3.57423e-05
0.0018142
0.175687
3.32461e-05
0.00194184
0.189084
1.97512e-05
0.00203346
0.198578
-6.03174e-09
0.00208148
0.203501
-1.97633e-05
0.00208148
0.203501
-3.32585e-05
0.00203347
0.198578
-3.57551e-05
0.00194184
0.189084
-2.47128e-05
0.0018142
0.175687
0.00166354
0.15929
-1.33692e-08
3.76311e-05
0.00190856
0.163084
-1.0442e-09
5.46576e-05
0.00206742
0.180225
5.09573e-05
0.00220014
0.194096
3.02861e-05
0.00229405
0.203861
-7.19694e-09
0.00234288
0.208903
-3.03006e-05
0.00234288
0.208903
-5.09719e-05
0.00229405
0.203861
-5.46723e-05
0.00220014
0.194096
-3.76455e-05
0.00206743
0.180225
0.00190856
0.163084
-1.48639e-08
5.24673e-05
0.00198914
0.15907
-1.36898e-09
7.61721e-05
0.00213869
0.176419
7.10428e-05
0.00226149
0.190322
4.221e-05
0.00234709
0.200044
-8.29695e-09
0.00239123
0.205045
-4.22266e-05
0.00239123
0.205045
-7.10592e-05
0.00234709
0.200044
-7.61883e-05
0.00226149
0.190322
-5.24828e-05
0.00213869
0.176419
0.00198914
0.15907
-1.58014e-08
6.85433e-05
0.00190357
0.148816
-1.7978e-09
9.94325e-05
0.00202978
0.166027
9.26501e-05
0.0021315
0.179695
5.49847e-05
0.00220138
0.18919
-9.25857e-09
0.0022371
0.194054
-5.50031e-05
0.0022371
0.194054
-9.2668e-05
0.00220138
0.18919
-9.94497e-05
0.0021315
0.179695
-6.85591e-05
0.00202978
0.166027
0.00190358
0.148816
-1.61264e-08
8.58414e-05
0.00167527
0.133703
-2.29502e-09
0.000124011
0.0017701
0.150594
0.000115093
0.00184511
0.163891
6.81167e-05
0.00189594
0.173067
-9.95993e-09
0.00192171
0.177748
-6.81364e-05
0.00192171
0.177748
-0.000115112
0.00189594
0.173067
-0.000124028
0.00184511
0.163891
-8.5857e-05
0.0017701
0.150594
0.00167527
0.133703
-1.57952e-08
0.000103708
0.114907
-2.55505e-09
0.00134612
0.000148571
0.131435
0.00140723
0.000137283
0.14431
0.00145534
8.09937e-05
0.153131
0.00148832
-1.02198e-08
0.157613
0.00150501
-8.10137e-05
0.157613
0.00150501
-0.000137302
0.153131
0.00148832
-0.000148588
0.14431
0.00145534
-0.000103723
0.131435
0.00140723
0.114907
-1.4608e-08
0.00134612
-9.02356e-07
5.14122e-05
0.0321207
-6.51557e-11
-1.33688e-06
5.63333e-05
0.03545
-1.12511e-06
6.04402e-05
0.038255
-6.36554e-07
6.3549e-05
0.0402857
-6.74461e-10
6.5177e-05
0.0413521
6.35173e-07
6.5177e-05
0.0413521
1.1237e-06
6.3549e-05
0.0402857
1.33539e-06
6.04403e-05
0.038255
9.00826e-07
5.63334e-05
0.03545
5.14123e-05
0.0321207
-1.59097e-09
-1.14316e-06
0.000178263
0.0839032
-1.48644e-10
-1.75903e-06
0.0001961
0.0924713
-1.51304e-06
0.00021129
0.0996478
-8.47172e-07
0.000222618
0.10482
-1.71026e-09
0.00022861
0.107529
8.43697e-07
0.00022861
0.107529
1.5095e-06
0.000222618
0.10482
1.7553e-06
0.000211291
0.0996478
1.13939e-06
0.000196101
0.0924713
0.000178263
0.0839032
-3.82134e-09
9.45158e-08
0.000350239
0.121297
-2.5937e-10
3.82386e-08
0.00038538
0.133642
1.06578e-07
0.000415411
0.143909
1.20564e-07
0.00043749
0.151272
-2.74476e-09
0.000449189
0.155117
-1.26109e-07
0.000449189
0.155117
-1.12348e-07
0.00043749
0.151272
-4.41198e-08
0.000415411
0.143909
-1.00418e-07
0.000385381
0.133642
0.000350239
0.121297
-6.00878e-09
2.64975e-06
0.000532777
0.145813
-3.73631e-10
3.88554e-06
0.000584762
0.160684
3.74168e-06
0.000629049
0.172948
2.28642e-06
0.000661271
0.181694
-3.68163e-09
0.000678274
0.186245
-2.29383e-06
0.000678274
0.186245
-3.74921e-06
0.000661272
0.181694
-3.89324e-06
0.000629049
0.172948
-2.65741e-06
0.000584762
0.160684
0.000532777
0.145813
-7.80369e-09
6.62429e-06
0.000691768
0.159124
-5.10886e-10
9.77356e-06
0.000756086
0.175512
9.2652e-06
0.000810443
0.188903
5.57754e-06
0.000849532
0.198394
-4.5261e-09
0.000870041
0.203314
-5.58661e-06
0.000870042
0.203314
-9.27435e-06
0.000849533
0.198394
-9.78275e-06
0.000810443
0.188903
-6.63333e-06
0.000756087
0.175512
0.000691769
0.159124
-9.24585e-09
1.18325e-05
0.000800437
0.162963
-6.93068e-10
1.74117e-05
0.000870106
0.180106
1.64259e-05
0.000928273
0.193979
9.84034e-06
0.00096957
0.203747
-5.32534e-09
0.000991089
0.208792
-9.85098e-06
0.000991089
0.208792
-1.64365e-05
0.000969571
0.203747
-1.74221e-05
0.000928274
0.193979
-1.18427e-05
0.000870107
0.180106
0.000800439
0.162963
-1.03335e-08
1.80295e-05
0.000842897
0.15901
-9.11864e-10
2.64441e-05
0.000910315
0.17637
2.48805e-05
0.000965731
0.190286
1.48663e-05
0.00100454
0.200019
-6.07676e-09
0.00102461
0.205026
-1.48784e-05
0.00102461
0.205026
-2.48924e-05
0.00100454
0.200019
-2.64556e-05
0.000965732
0.190286
-1.80404e-05
0.000910316
0.17637
0.000842898
0.15901
-1.10832e-08
2.49854e-05
0.000815203
0.148818
-1.16269e-09
3.65681e-05
0.000873741
0.166052
3.43119e-05
0.000921067
0.179742
2.04497e-05
0.000953757
0.189255
-6.75883e-09
0.000970519
0.194129
-2.04631e-05
0.00097052
0.194129
-3.43249e-05
0.000953757
0.189255
-3.65805e-05
0.000921068
0.179742
-2.49969e-05
0.000873742
0.166052
0.000815204
0.148818
-1.14981e-08
3.28166e-05
0.000724212
0.133761
-1.31194e-09
4.77242e-05
0.000769599
0.150683
4.45135e-05
0.000805692
0.164009
2.64233e-05
0.000830286
0.173209
-7.32599e-09
0.000842796
0.177902
-2.64378e-05
0.000842796
0.177902
-4.45274e-05
0.000830287
0.173209
-4.77371e-05
0.000805692
0.164009
-3.28285e-05
0.0007696
0.150683
0.000724213
0.133761
-1.15517e-08
4.14159e-05
0.115004
-1.49884e-09
0.000585621
5.95614e-05
0.131571
0.00061602
5.52243e-05
0.14448
0.000640097
3.26473e-05
0.153328
0.000656659
-7.69551e-09
0.157823
0.000665067
-3.26625e-05
0.157823
0.000665067
-5.52387e-05
0.153328
0.000656659
-5.95747e-05
0.14448
0.000640098
-4.14276e-05
0.131571
0.00061602
0.115004
-1.11279e-08
0.000585621
-6.91006e-08
1.3454e-05
0.0321073
-5.13694e-11
-1.72808e-07
1.49945e-05
0.0354352
-1.47514e-07
1.6365e-05
0.0382386
-8.68175e-08
1.74675e-05
0.0402682
-5.31239e-10
1.80601e-05
0.0413339
8.57433e-08
1.80602e-05
0.0413339
1.46473e-07
1.74675e-05
0.0402682
1.71697e-07
1.63651e-05
0.0382386
6.80558e-08
1.49945e-05
0.0354352
1.34541e-05
0.0321073
-1.04463e-09
8.30175e-08
5.73078e-05
0.0838593
-1.09162e-10
-1.3569e-08
6.36852e-05
0.0924227
-2.94093e-08
6.92919e-05
0.0995949
-1.80931e-08
7.35669e-05
0.104764
-1.3163e-09
7.58628e-05
0.107472
1.55192e-08
7.58628e-05
0.107472
2.67013e-08
7.3567e-05
0.104764
1.128e-08
6.92918e-05
0.0995949
-8.54508e-08
6.36855e-05
0.0924227
5.73081e-05
0.0838593
-2.49442e-09
6.73667e-07
0.00012209
0.121231
-1.90876e-10
8.32769e-07
0.000135292
0.13357
7.47179e-07
0.000146789
0.143831
4.40165e-07
0.000155385
0.151191
-2.09912e-09
0.000159977
0.155034
-4.44369e-07
0.000159977
0.155034
-7.5134e-07
0.000155385
0.151191
-8.36967e-07
0.000146789
0.143831
-6.77649e-07
0.000135292
0.13357
0.000122091
0.121231
-3.97847e-09
1.79036e-06
0.000193861
0.14574
-2.69311e-10
2.49467e-06
0.000214006
0.160605
2.29857e-06
0.00023141
0.172863
1.36342e-06
0.000244238
0.181606
-2.78852e-09
0.000251053
0.186155
-1.36899e-06
0.000251053
0.186155
-2.30411e-06
0.000244238
0.181606
-2.50017e-06
0.00023141
0.172863
-1.79562e-06
0.000214006
0.160605
0.000193861
0.14574
-5.21866e-09
3.46438e-06
0.000258814
0.159056
-3.61548e-10
4.98323e-06
0.000284325
0.17544
4.63749e-06
0.000306148
0.188829
2.75836e-06
0.000322026
0.198318
-3.40264e-09
0.000330408
0.203238
-2.76515e-06
0.000330409
0.203238
-4.64423e-06
0.000322026
0.198318
-4.98986e-06
0.000306148
0.188829
-3.47071e-06
0.000284325
0.17544
0.000258815
0.159056
-6.21982e-09
5.6706e-06
0.000305621
0.162911
-4.57641e-10
8.23938e-06
0.000333789
0.180054
7.69949e-06
0.000357583
0.193928
4.58454e-06
0.000374666
0.203698
-3.96955e-09
0.00038362
0.208743
-4.59245e-06
0.00038362
0.208743
-7.70731e-06
0.000374666
0.203698
-8.24702e-06
0.000357583
0.193928
-5.67786e-06
0.000333789
0.180054
0.000305622
0.162911
-7.01268e-09
8.32588e-06
0.000327017
0.15898
-5.47346e-10
1.21353e-05
0.000354732
0.176345
1.13572e-05
0.000377781
0.190266
6.76285e-06
0.000394099
0.200005
-4.48406e-09
0.000402584
0.205014
-6.77178e-06
0.000402584
0.205014
-1.13659e-05
0.000394099
0.200005
-1.21438e-05
0.000377782
0.190266
-8.33385e-06
0.000354733
0.176345
0.000327017
0.15898
-7.63208e-09
1.13316e-05
0.000320497
0.148814
-6.60707e-10
1.65268e-05
0.000344948
0.166057
1.54568e-05
0.000364926
0.179756
9.19372e-06
0.000378857
0.189277
-4.92119e-09
0.000386036
0.194154
-9.20348e-06
0.000386036
0.194154
-1.54663e-05