/*--------------------------------*- C++ -*----------------------------------*\
| =========                 |                                                 |
| \\      /  F ield         | OpenFOAM: The Open Source CFD Toolbox           |
|  \\    /   O peration     | Version:  2106                                  |
|   \\  /    A nd           | Website:  www.openfoam.com                      |
|    \\/     M anipulation  |                                                 |
\*---------------------------------------------------------------------------*/
FoamFile
{
    version     2.0;
    format      ascii;
    arch        "LSB;label=32;scalar=64";
    class       volVectorField;
    location    "0.2";
    object      U;
}
// * * * * * * * * * * * * * * * * * * * * * * * * * * * * * * * * * * * * * //

dimensions      [0 1 -1 0 0 0 0];

internalField   nonuniform List<vector> 
10000
(
(0.0625542 0.0737156 0.345114)
(0.0533474 0.0838341 0.359599)
(0.0398405 0.0929821 0.370968)
(0.0247143 0.099362 0.37882)
(0.00837546 0.10266 0.38281)
(-0.00837548 0.10266 0.38281)
(-0.0247143 0.099362 0.37882)
(-0.0398405 0.0929821 0.370968)
(-0.0533475 0.0838341 0.359599)
(-0.0625542 0.0737156 0.345114)
(0.171738 0.203767 0.72811)
(0.144941 0.230919 0.747787)
(0.108193 0.254795 0.762451)
(0.0669304 0.271317 0.772365)
(0.0226544 0.279836 0.777322)
(-0.0226544 0.279836 0.777322)
(-0.0669305 0.271317 0.772365)
(-0.108193 0.254795 0.762451)
(-0.144941 0.230919 0.747787)
(-0.171738 0.203767 0.72811)
(0.221639 0.263218 0.924336)
(0.184918 0.294651 0.940205)
(0.137122 0.322086 0.951305)
(0.0843931 0.340837 0.958631)
(0.0284924 0.35044 0.962225)
(-0.0284925 0.35044 0.962225)
(-0.0843932 0.340837 0.958631)
(-0.137122 0.322086 0.951305)
(-0.184918 0.294651 0.940205)
(-0.221639 0.263218 0.924336)
(0.235662 0.279444 1.0237)
(0.194615 0.30879 1.03424)
(0.143369 0.334447 1.04094)
(0.0878058 0.351768 1.04522)
(0.0295732 0.360574 1.04726)
(-0.0295733 0.360574 1.04726)
(-0.0878059 0.351768 1.04522)
(-0.143369 0.334447 1.04094)
(-0.194615 0.30879 1.03424)
(-0.235663 0.279444 1.0237)
(0.23251 0.275246 1.07217)
(0.190334 0.300433 1.07813)
(0.13941 0.322582 1.08126)
(0.0850082 0.337381 1.08314)
(0.0285704 0.344851 1.08398)
(-0.0285705 0.344851 1.08398)
(-0.0850083 0.337381 1.08314)
(-0.139411 0.322582 1.08126)
(-0.190334 0.300433 1.07813)
(-0.23251 0.275246 1.07217)
(0.220205 0.260241 1.09321)
(0.178782 0.280586 1.09575)
(0.130254 0.298625 1.09636)
(0.0790975 0.310582 1.09657)
(0.0265312 0.316573 1.0966)
(-0.0265313 0.316573 1.0966)
(-0.0790976 0.310581 1.09657)
(-0.130254 0.298625 1.09636)
(-0.178782 0.280586 1.09575)
(-0.220205 0.260241 1.09321)
(0.202626 0.238897 1.09962)
(0.163147 0.254237 1.09979)
(0.118255 0.267989 1.09878)
(0.0715263 0.277065 1.09795)
(0.0239456 0.281585 1.09747)
(-0.0239458 0.281585 1.09747)
(-0.0715264 0.277065 1.09795)
(-0.118255 0.267989 1.09878)
(-0.163147 0.254237 1.09979)
(-0.202626 0.238897 1.09962)
(0.182237 0.214097 1.09858)
(0.145491 0.224587 1.09723)
(0.104949 0.234147 1.09529)
(0.063243 0.240473 1.09386)
(0.0211344 0.243618 1.09312)
(-0.0211346 0.243617 1.09312)
(-0.0632432 0.240473 1.09386)
(-0.104949 0.234147 1.09529)
(-0.145491 0.224587 1.09723)
(-0.182237 0.214096 1.09858)
(0.160671 0.187758 1.09415)
(0.127275 0.193711 1.09185)
(0.091394 0.19933 1.08944)
(0.0548852 0.203165 1.08774)
(0.0183106 0.205088 1.08688)
(-0.0183109 0.205088 1.08688)
(-0.0548854 0.203165 1.08774)
(-0.0913943 0.19933 1.08944)
(-0.127275 0.193711 1.09185)
(-0.160671 0.187757 1.09415)
(0.139152 0.161511 1.0886)
(0.109764 0.16168 1.08577)
(0.0782603 0.164137 1.08317)
(0.0468193 0.165948 1.08142)
(0.0155914 0.166877 1.08053)
(-0.0155917 0.166877 1.08053)
(-0.0468196 0.165948 1.08142)
(-0.0782606 0.164137 1.08317)
(-0.109765 0.16168 1.08577)
(-0.139152 0.161511 1.0886)
(0.0111313 0.0142269 0.268089)
(0.00934705 0.0175003 0.280436)
(0.00705748 0.0201277 0.290545)
(0.00446577 0.0219285 0.297581)
(0.00152781 0.0228663 0.301182)
(-0.00152784 0.0228663 0.301182)
(-0.0044658 0.0219285 0.297581)
(-0.0070575 0.0201277 0.290545)
(-0.00934707 0.0175003 0.280436)
(-0.0111313 0.0142269 0.268089)
(0.0535364 0.0648238 0.634257)
(0.045933 0.0779612 0.656433)
(0.0351358 0.0892068 0.674213)
(0.0222029 0.0971666 0.686439)
(0.0075965 0.101342 0.692645)
(-0.00759656 0.101342 0.692645)
(-0.0222029 0.0971666 0.686439)
(-0.0351359 0.0892068 0.674213)
(-0.0459331 0.0779612 0.656433)
(-0.0535364 0.0648238 0.634257)
(0.095407 0.114049 0.883813)
(0.0812916 0.134759 0.907904)
(0.0618264 0.152505 0.926787)
(0.0388235 0.165004 0.939609)
(0.0132415 0.171524 0.946065)
(-0.0132416 0.171524 0.946065)
(-0.0388236 0.165004 0.939609)
(-0.0618265 0.152505 0.926787)
(-0.0812917 0.134759 0.907904)
(-0.0954071 0.114049 0.883813)
(0.129426 0.15359 1.05311)
(0.10927 0.17859 1.07524)
(0.0825229 0.199889 1.09215)
(0.0515048 0.214767 1.10348)
(0.017513 0.222479 1.10913)
(-0.0175132 0.222479 1.10913)
(-0.051505 0.214767 1.10348)
(-0.0825231 0.199889 1.09215)
(-0.10927 0.178589 1.07524)
(-0.129426 0.15359 1.05311)
(0.15286 0.180389 1.16632)
(0.127855 0.206596 1.18476)
(0.0958905 0.22875 1.19842)
(0.0595113 0.244091 1.20742)
(0.0201784 0.251991 1.21186)
(-0.0201786 0.251991 1.21186)
(-0.0595115 0.244091 1.20742)
(-0.0958907 0.22875 1.19842)
(-0.127855 0.206596 1.18476)
(-0.15286 0.180389 1.16632)
(0.166005 0.194915 1.24004)
(0.137564 0.219912 1.25421)
(0.102481 0.240831 1.26431)
(0.0632655 0.255196 1.27082)
(0.0213945 0.262546 1.27398)
(-0.0213948 0.262546 1.27398)
(-0.0632657 0.255195 1.27082)
(-0.102481 0.240831 1.26431)
(-0.137565 0.219911 1.25421)
(-0.166005 0.194915 1.24004)
(0.170169 0.198805 1.28615)
(0.139699 0.220842 1.29615)
(0.103394 0.239039 1.3029)
(0.0635101 0.251438 1.3071)
(0.0214237 0.257745 1.3091)
(-0.021424 0.257745 1.3091)
(-0.0635104 0.251438 1.3071)
(-0.103394 0.239039 1.3029)
(-0.139699 0.220842 1.29615)
(-0.170169 0.198805 1.28615)
(0.166929 0.193967 1.31319)
(0.135752 0.211877 1.31948)
(0.0998487 0.226395 1.32335)
(0.0610476 0.236228 1.32561)
(0.0205453 0.24121 1.32664)
(-0.0205457 0.24121 1.32664)
(-0.061048 0.236228 1.32561)
(-0.099849 0.226395 1.32335)
(-0.135753 0.211877 1.31948)
(-0.166929 0.193967 1.31319)
(0.157918 0.182289 1.32732)
(0.127297 0.195376 1.33054)
(0.0930723 0.205662 1.33214)
(0.0566512 0.212647 1.33289)
(0.0190237 0.216182 1.33317)
(-0.0190241 0.216182 1.33317)
(-0.0566517 0.212646 1.33289)
(-0.0930727 0.205662 1.33214)
(-0.127298 0.195376 1.33054)
(-0.157918 0.182289 1.32732)
(0.144818 0.1665 1.33306)
(0.115994 0.172638 1.3339)
(0.0841205 0.178628 1.33385)
(0.0509486 0.182743 1.33353)
(0.0170678 0.184827 1.33328)
(-0.0170683 0.184827 1.33328)
(-0.0509491 0.182743 1.33353)
(-0.0841209 0.178628 1.33385)
(-0.115994 0.172638 1.3339)
(-0.144819 0.1665 1.33306)
(0.00105612 0.00117621 0.161603)
(0.00107357 0.00150519 0.170105)
(0.000837696 0.00189689 0.177193)
(0.000560311 0.0021874 0.182208)
(0.000195262 0.00234822 0.184804)
(-0.000195284 0.00234822 0.184804)
(-0.000560334 0.00218739 0.182208)
(-0.00083772 0.00189688 0.177193)
(-0.00107359 0.00150518 0.170105)
(-0.00105615 0.00117619 0.161603)
(0.017068 0.0198081 0.452754)
(0.0153496 0.024153 0.473448)
(0.0120086 0.0282513 0.490414)
(0.00770829 0.0312757 0.502314)
(0.00265549 0.0328992 0.508438)
(-0.00265556 0.0328992 0.508438)
(-0.00770836 0.0312757 0.502314)
(-0.0120086 0.0282513 0.490414)
(-0.0153496 0.0241529 0.473448)
(-0.017068 0.0198081 0.452754)
(0.0385209 0.0448585 0.701694)
(0.0339896 0.0538201 0.729795)
(0.026378 0.0620014 0.752452)
(0.0167875 0.0679722 0.768202)
(0.00576129 0.0711481 0.776262)
(-0.0057614 0.071148 0.776262)
(-0.0167876 0.0679722 0.768202)
(-0.0263781 0.0620013 0.752452)
(-0.0339897 0.0538201 0.729795)
(-0.038521 0.0448584 0.701694)
(0.0612089 0.0713543 0.907172)
(0.0532543 0.0843368 0.938562)
(0.0409954 0.0959472 0.963413)
(0.0259114 0.104322 0.980518)
(0.00886338 0.108741 0.989219)
(-0.00886353 0.108741 0.989219)
(-0.0259116 0.104322 0.980518)
(-0.0409955 0.0959472 0.963413)
(-0.0532545 0.0843367 0.938562)
(-0.061209 0.0713542 0.907172)
(0.0809077 0.0942324 1.07216)
(0.0695347 0.109747 1.10369)
(0.0531116 0.123401 1.12815)
(0.0333645 0.133141 1.1448)
(0.0113788 0.138243 1.15322)
(-0.011379 0.138243 1.15322)
(-0.0333647 0.133141 1.1448)
(-0.0531118 0.123401 1.12815)
(-0.0695349 0.109747 1.10369)
(-0.0809079 0.0942323 1.07216)
(0.0956361 0.111122 1.2014)
(0.0812635 0.12749 1.23086)
(0.0616046 0.141681 1.25323)
(0.0384797 0.151701 1.26827)
(0.0130868 0.156914 1.27581)
(-0.013087 0.156914 1.27581)
(-0.0384799 0.151701 1.26827)
(-0.0616049 0.141681 1.25323)
(-0.0812637 0.12749 1.23086)
(-0.0956363 0.111122 1.2014)
(0.104801 0.121356 1.30019)
(0.0880803 0.137046 1.32623)
(0.0662858 0.150432 1.34552)
(0.0411802 0.159796 1.35832)
(0.013968 0.164637 1.36469)
(-0.0139683 0.164637 1.36469)
(-0.0411805 0.159796 1.35832)
(-0.0662861 0.150432 1.34552)
(-0.0880806 0.137046 1.32623)
(-0.104801 0.121356 1.30019)
(0.108517 0.125104 1.37374)
(0.0902298 0.138859 1.39569)
(0.0674245 0.150371 1.41156)
(0.0416719 0.15836 1.42192)
(0.0140988 0.162468 1.42702)
(-0.0140992 0.162468 1.42702)
(-0.0416722 0.15836 1.42192)
(-0.0674248 0.150371 1.41156)
(-0.0902301 0.138859 1.39569)
(-0.108518 0.125104 1.37374)
(0.107363 0.123021 1.42684)
(0.0883607 0.133906 1.44464)
(0.06556 0.142745 1.45718)
(0.0403087 0.148858 1.46523)
(0.0136024 0.15199 1.46914)
(-0.0136028 0.15199 1.46914)
(-0.0403091 0.148858 1.46523)
(-0.0655604 0.142745 1.45718)
(-0.0883611 0.133906 1.44464)
(-0.107363 0.123021 1.42684)
(0.102272 0.11683 1.46365)
(0.0833858 0.122996 1.47792)
(0.0612719 0.128662 1.48753)
(0.0374449 0.132572 1.49354)
(0.0125988 0.134567 1.49641)
(-0.0125992 0.134567 1.49641)
(-0.0374454 0.132572 1.49354)
(-0.0612723 0.128662 1.48753)
(-0.0833862 0.122996 1.47792)
(-0.102272 0.11683 1.46365)
(0.000665836 0.000880631 0.143914)
(0.000515759 0.00110505 0.151027)
(0.000350243 0.00126222 0.156808)
(0.00021537 0.00135397 0.160865)
(7.18073e-05 0.00139933 0.162957)
(-7.1826e-05 0.00139933 0.162957)
(-0.000215389 0.00135396 0.160865)
(-0.000350263 0.00126221 0.156808)
(-0.00051578 0.00110504 0.151027)
(-0.000665856 0.000880614 0.143914)
(0.00631573 0.00757773 0.412032)
(0.00546539 0.00934025 0.43082)
(0.00419151 0.0108598 0.445997)
(0.00266893 0.0119447 0.456609)
(0.00091568 0.0125204 0.462068)
(-0.000915736 0.0125204 0.462068)
(-0.00266898 0.0119447 0.456609)
(-0.00419157 0.0108597 0.445997)
(-0.00546545 0.00934022 0.43082)
(-0.00631579 0.00757769 0.412032)
(0.015293 0.0181042 0.652973)
(0.0132995 0.0220206 0.680399)
(0.0102672 0.0254478 0.702358)
(0.00652913 0.0279236 0.717634)
(0.0022402 0.0292374 0.725466)
(-0.0022403 0.0292374 0.725466)
(-0.00652923 0.0279236 0.717634)
(-0.0102673 0.0254477 0.702358)
(-0.0132996 0.0220206 0.680399)
(-0.0152931 0.0181041 0.652973)
(0.0259299 0.0305156 0.863869)
(0.0224683 0.036638 0.89675)
(0.0173168 0.0419924 0.922776)
(0.0109744 0.0458558 0.94076)
(0.00375962 0.0478987 0.949942)
(-0.00375975 0.0478987 0.949942)
(-0.0109745 0.0458558 0.94076)
(-0.0173169 0.0419924 0.922776)
(-0.0224684 0.0366379 0.89675)
(-0.0259301 0.0305155 0.863869)
(0.0363679 0.0426071 1.04407)
(0.0312994 0.0504627 1.07946)
(0.0240134 0.0572881 1.10708)
(0.0151521 0.0621844 1.12602)
(0.00517988 0.0647608 1.13564)
(-0.00518005 0.0647608 1.13564)
(-0.0151523 0.0621844 1.12602)
(-0.0240136 0.057288 1.10708)
(-0.0312996 0.0504626 1.07946)
(-0.036368 0.042607 1.04407)
(0.0453214 0.0528644 1.19455)
(0.0386829 0.0617075 1.22996)
(0.029505 0.0693112 1.25716)
(0.0185281 0.0747245 1.27564)
(0.00631903 0.0775573 1.28498)
(-0.00631924 0.0775573 1.28498)
(-0.0185283 0.0747245 1.27564)
(-0.0295052 0.0693111 1.25716)
(-0.0386831 0.0617075 1.22996)
(-0.0453216 0.0528643 1.19455)
(0.0520108 0.0603877 1.31735)
(0.043986 0.0693852 1.35087)
(0.0333328 0.0770142 1.37618)
(0.0208274 0.0824005 1.39321)
(0.00708566 0.0852032 1.40175)
(-0.00708592 0.0852032 1.40175)
(-0.0208277 0.0824004 1.39321)
(-0.033333 0.0770141 1.37618)
(-0.0439862 0.0693852 1.35087)
(-0.052011 0.0603876 1.31735)
(0.0560382 0.0647221 1.41516)
(0.0469338 0.073073 1.44549)
(0.0353272 0.0800284 1.46802)
(0.0219623 0.0848976 1.483)
(0.00745293 0.0874178 1.49048)
(-0.00745323 0.0874178 1.49048)
(-0.0219626 0.0848976 1.483)
(-0.0353275 0.0800284 1.46801)
(-0.0469341 0.073073 1.44549)
(-0.0560384 0.0647221 1.41516)
(0.0573553 0.0657837 1.49091)
(0.0475724 0.0728042 1.51749)
(0.0355539 0.0784865 1.53688)
(0.0219852 0.0824401 1.54962)
(0.00744066 0.0844761 1.55592)
(-0.007441 0.0844761 1.55592)
(-0.0219855 0.0824401 1.54962)
(-0.0355542 0.0784865 1.53688)
(-0.0475727 0.0728042 1.51749)
(-0.0573556 0.0657837 1.49091)
(0.0562393 0.0642914 1.5475)
(0.0461916 0.0687656 1.57074)
(0.0341848 0.0726777 1.58705)
(0.0210047 0.0753821 1.59758)
(0.00708642 0.0767658 1.60273)
(-0.00708677 0.0767658 1.60273)
(-0.021005 0.0753821 1.59758)
(-0.0341851 0.0726777 1.58705)
(-0.0461919 0.0687656 1.57074)
(-0.0562395 0.0642914 1.5475)
(0.000102861 0.000109306 0.134359)
(9.76342e-05 0.000145392 0.141077)
(7.19986e-05 0.00018445 0.146525)
(4.91332e-05 0.000211885 0.150354)
(1.69259e-05 0.000227377 0.15233)
(-1.6941e-05 0.000227376 0.15233)
(-4.91487e-05 0.000211881 0.150354)
(-7.20148e-05 0.000184443 0.146525)
(-9.7651e-05 0.000145382 0.141077)
(-0.000102877 0.000109293 0.134359)
(0.00206099 0.00238102 0.388586)
(0.00184607 0.00295441 0.406719)
(0.0014451 0.00348707 0.42137)
(0.000933055 0.00388274 0.431638)
(0.000321995 0.00409725 0.436927)
(-0.00032204 0.00409725 0.436927)
(-0.000933101 0.00388273 0.431638)
(-0.00144515 0.00348705 0.42137)
(-0.00184612 0.00295439 0.406719)
(-0.00206103 0.00238099 0.388586)
(0.00558974 0.00648697 0.621802)
(0.00496325 0.00794746 0.648912)
(0.00388534 0.00927849 0.67067)
(0.00249377 0.0102663 0.685858)
(0.00085923 0.0107979 0.693661)
(-0.000859304 0.0107979 0.693661)
(-0.00249385 0.0102663 0.685858)
(-0.00388541 0.00927847 0.67067)
(-0.00496333 0.00794742 0.648912)
(-0.00558982 0.00648692 0.621802)
(0.0101825 0.0118269 0.831358)
(0.00897106 0.0143146 0.864774)
(0.00699737 0.0165552 0.891349)
(0.00447023 0.0182081 0.9098)
(0.00153724 0.0190926 0.919246)
(-0.00153734 0.0190926 0.919246)
(-0.00447034 0.0182081 0.9098)
(-0.00699748 0.0165551 0.891349)
(-0.00897117 0.0143146 0.864774)
(-0.0101826 0.0118268 0.831358)
(0.015084 0.0174987 1.01577)
(0.0131803 0.0209081 1.05284)
(0.0102275 0.0239451 1.08198)
(0.00650324 0.0261685 1.10208)
(0.00223149 0.0273516 1.11233)
(-0.00223162 0.0273516 1.11233)
(-0.00650337 0.0261684 1.10208)
(-0.0102276 0.0239451 1.08198)
(-0.0131804 0.0209081 1.05284)
(-0.0150842 0.0174987 1.01577)
(0.019658 0.0227468 1.17469)
(0.0170261 0.0268002 1.21298)
(0.013132 0.0303672 1.24268)
(0.00830965 0.0329566 1.26301)
(0.00284464 0.0343267 1.27333)
(-0.00284481 0.0343267 1.27333)
(-0.00830981 0.0329566 1.26301)
(-0.0131322 0.0303672 1.24268)
(-0.0170263 0.0268002 1.21298)
(-0.0196581 0.0227467 1.17469)
(0.0234264 0.0270109 1.30871)
(0.0201003 0.0313338 1.34616)
(0.015401 0.0350841 1.3748)
(0.0096965 0.0377827 1.39425)
(0.00331119 0.0392022 1.40407)
(-0.00331139 0.0392022 1.40407)
(-0.00969669 0.0377827 1.39425)
(-0.0154012 0.0350841 1.3748)
(-0.0201004 0.0313338 1.34616)
(-0.0234265 0.0270109 1.30871)
(0.0260682 0.0299152 1.41913)
(0.0221482 0.0341013 1.45422)
(0.0168526 0.0376708 1.48068)
(0.0105553 0.0402156 1.49849)
(0.00359509 0.0415464 1.50743)
(-0.00359532 0.0415464 1.50743)
(-0.0105555 0.0402156 1.49849)
(-0.0168528 0.0376708 1.48068)
(-0.0221483 0.0341012 1.45421)
(-0.0260684 0.0299151 1.41913)
(0.0274423 0.0312798 1.50771)
(0.023081 0.0349494 1.53959)
(0.0174286 0.037991 1.56329)
(0.0108534 0.0401403 1.57906)
(0.00368589 0.0412569 1.58692)
(-0.00368614 0.0412569 1.58692)
(-0.0108537 0.0401403 1.57906)
(-0.0174289 0.037991 1.56329)
(-0.0230812 0.0349494 1.53959)
(-0.0274425 0.0312798 1.50771)
(0.0275889 0.0313711 1.57631)
(0.0229378 0.0338781 1.6053)
(0.0171347 0.0360609 1.62607)
(0.0105951 0.0375849 1.63967)
(0.00358548 0.0383698 1.64638)
(-0.00358574 0.0383698 1.64638)
(-0.0105953 0.0375849 1.63967)
(-0.017135 0.0360609 1.62607)
(-0.022938 0.0338781 1.6053)
(-0.0275891 0.0313711 1.57631)
(6.67517e-05 9.12366e-05 0.132155)
(4.57598e-05 0.00011593 0.138714)
(2.69844e-05 0.000129948 0.144002)
(1.58413e-05 0.000136414 0.147712)
(5.03293e-06 0.00013931 0.149624)
(-5.04508e-06 0.000139309 0.149624)
(-1.58536e-05 0.000136411 0.147712)
(-2.6997e-05 0.000129943 0.144002)
(-4.57725e-05 0.000115922 0.138714)
(-6.67637e-05 9.12267e-05 0.132155)
(0.000803612 0.000965686 0.382243)
(0.000685161 0.00119844 0.400029)
(0.000520112 0.00139272 0.41434)
(0.000330386 0.00153041 0.424359)
(0.000113115 0.00160349 0.429517)
(-0.000113151 0.00160349 0.429517)
(-0.000330422 0.0015304 0.424359)
(-0.000520149 0.0013927 0.41434)
(-0.000685197 0.00119842 0.400029)
(-0.000803645 0.000965661 0.382243)
(0.00219083 0.00259006 0.612618)
(0.00190362 0.00318394 0.639409)
(0.00147125 0.00369949 0.660854)
(0.000938214 0.00407497 0.675818)
(0.000322291 0.00427542 0.683505)
(-0.00032235 0.00427542 0.683505)
(-0.000938273 0.00407496 0.675818)
(-0.00147131 0.00369947 0.660854)
(-0.00190368 0.00318391 0.639409)
(-0.00219088 0.00259002 0.612618)
(0.00406868 0.00477745 0.821264)
(0.00354688 0.00581502 0.854631)
(0.00275135 0.0067254 0.881134)
(0.00175363 0.00739179 0.899544)
(0.000602467 0.00774741 0.908973)
(-0.000602547 0.00774741 0.908973)
(-0.00175371 0.00739178 0.899544)
(-0.00275143 0.00672538 0.881134)
(-0.00354696 0.00581499 0.854631)
(-0.00406875 0.00477741 0.821264)
(0.0061749 0.00721561 1.00684)
(0.00537003 0.00868399 1.04432)
(0.00416007 0.00997233 1.07379)
(0.0026451 0.0109134 1.09414)
(0.000907758 0.0114142 1.10453)
(-0.000907861 0.0114142 1.10453)
(-0.0026452 0.0109134 1.09414)
(-0.00416017 0.00997231 1.07379)
(-0.00537013 0.00868395 1.04432)
(-0.00617499 0.00721556 1.00684)
(0.00825208 0.00959981 1.16879)
(0.00713827 0.0114048 1.20804)
(0.00550905 0.012979 1.23855)
(0.00349056 0.0141228 1.25948)
(0.00119587 0.014729 1.27012)
(-0.001196 0.014729 1.27012)
(-0.00349068 0.0141228 1.25948)
(-0.00550917 0.012979 1.23855)
(-0.00713839 0.0114048 1.20804)
(-0.00825218 0.00959976 1.16879)
(0.0100739 0.0116645 1.30731)
(0.0086518 0.0136538 1.34629)
(0.00664248 0.0153707 1.37622)
(0.00419104 0.0166095 1.3966)
(0.00143287 0.0172627 1.40691)
(-0.00143301 0.0172627 1.40691)
(-0.00419118 0.0166095 1.3966)
(-0.00664262 0.0153707 1.37622)
(-0.00865193 0.0136537 1.34629)
(-0.010074 0.0116644 1.30731)
(0.0114614 0.0131985 1.42321)
(0.0097612 0.015188 1.46033)
(0.00744872 0.0168805 1.48849)
(0.00467759 0.0180914 1.50751)
(0.0015954 0.0187264 1.51709)
(-0.00159557 0.0187264 1.51709)
(-0.00467775 0.0180914 1.50751)
(-0.00744887 0.0168805 1.48849)
(-0.00976134 0.015188 1.46033)
(-0.0114615 0.0131985 1.42321)
(0.0123079 0.014067 1.51771)
(0.0103863 0.01587 1.55204)
(0.00786924 0.0173649 1.57774)
(0.00491438 0.0184248 1.59494)
(0.00167143 0.0189769 1.60354)
(-0.00167161 0.0189769 1.60354)
(-0.00491456 0.0184248 1.59494)
(-0.0078694 0.0173649 1.57774)
(-0.0103864 0.01587 1.55204)
(-0.012308 0.014067 1.51771)
(0.0125927 0.0143502 1.59214)
(0.010507 0.0156454 1.62395)
(0.00787751 0.0167608 1.64694)
(0.00488507 0.0175416 1.66208)
(0.00165557 0.0179446 1.66958)
(-0.00165576 0.0179446 1.66958)
(-0.00488525 0.0175416 1.66208)
(-0.00787768 0.0167608 1.64694)
(-0.0105071 0.0156454 1.62395)
(-0.0125929 0.0143502 1.59214)
(7.16113e-06 8.16639e-06 0.131015)
(5.00548e-06 1.17647e-05 0.137525)
(2.53299e-06 1.44637e-05 0.142771)
(1.88462e-06 1.60203e-05 0.146453)
(6.12369e-07 1.69056e-05 0.14835)
(-6.21904e-07 1.69049e-05 0.14835)
(-1.89415e-06 1.6018e-05 0.146453)
(-2.54254e-06 1.44599e-05 0.142771)
(-5.01487e-06 1.17592e-05 0.137525)
(-7.16964e-06 8.15919e-06 0.131015)
(0.000254468 0.000296387 0.379061)
(0.000222707 0.000370694 0.396728)
(0.000172172 0.000436375 0.410937)
(0.000110897 0.000484743 0.420887)
(3.81902e-05 0.000510946 0.426008)
(-3.82176e-05 0.000510944 0.426008)
(-0.000110924 0.000484737 0.420887)
(-0.000172199 0.000436365 0.410937)
(-0.000222734 0.00037068 0.396728)
(-0.000254492 0.000296369 0.379061)
(0.000763002 0.000887711 0.607914)
(0.000672811 0.00109808 0.634581)
(0.00052575 0.00128614 0.655924)
(0.00033787 0.00142613 0.670823)
(0.000116469 0.00150173 0.678477)
(-0.000116513 0.00150172 0.678477)
(-0.000337914 0.00142612 0.670823)
(-0.000525793 0.00128612 0.655924)
(-0.000672854 0.00109806 0.634581)
(-0.000763041 0.000887684 0.607914)
(0.00149193 0.00173317 0.815794)
(0.00131522 0.00212237 0.849123)
(0.00102918 0.00247075 0.875605)
(0.000659954 0.00273005 0.894012)
(0.000227376 0.00286966 0.903443)
(-0.000227437 0.00286966 0.903443)
(-0.000660015 0.00273004 0.894012)
(-0.00102924 0.00247074 0.875605)
(-0.00131528 0.00212234 0.849123)
(-0.00149199 0.00173314 0.815794)
(0.00234827 0.00272134 1.00146)
(0.00206269 0.00329552 1.03907)
(0.00161079 0.00380772 1.06868)
(0.00102991 0.0041874 1.08914)
(0.000354399 0.00439108 1.0996)
(-0.000354475 0.00439108 1.0996)
(-0.00102999 0.00418739 1.08914)
(-0.00161087 0.0038077 1.06868)
(-0.00206276 0.0032955 1.03907)
(-0.00234833 0.0027213 1.00146)
(0.00323053 0.00373161 1.16435)
(0.00282168 0.00446183 1.20396)
(0.00219482 0.00510855 1.23481)
(0.00139828 0.00558509 1.256)
(0.000480335 0.0058396 1.26678)
(-0.000480426 0.0058396 1.26678)
(-0.00139837 0.00558507 1.256)
(-0.00219491 0.00510853 1.23481)
(-0.00282177 0.0044618 1.20396)
(-0.00323061 0.00373157 1.16435)
(0.0040411 0.00464903 1.30452)
(0.0035045 0.00547778 1.34413)
(0.00271178 0.00620411 1.37461)
(0.00172036 0.00673534 1.39541)
(0.00058975 0.00701762 1.40595)
(-0.000589855 0.00701762 1.40595)
(-0.00172046 0.00673532 1.39541)
(-0.00271188 0.00620409 1.37461)
(-0.0035046 0.00547775 1.34413)
(-0.00404119 0.00464899 1.30452)
(0.00469576 0.00537407 1.42262)
(0.00403869 0.00622522 1.46063)
(0.00310599 0.00696072 1.48954)
(0.00196102 0.00749378 1.50913)
(0.000670617 0.00777537 1.519)
(-0.000670736 0.00777536 1.519)
(-0.00196113 0.00749377 1.50913)
(-0.0031061 0.0069607 1.48954)
(-0.00403879 0.00622519 1.46063)
(-0.00469585 0.00537404 1.42262)
(0.00513819 0.00583697 1.51965)
(0.00437812 0.00662872 1.55509)
(0.00334193 0.00729498 1.58172)
(0.00209773 0.00777258 1.5996)
(0.00071523 0.0080229 1.60855)
(-0.000715359 0.0080229 1.60855)
(-0.00209786 0.00777257 1.5996)
(-0.00334205 0.00729497 1.58172)
(-0.00437823 0.0066287 1.55508)
(-0.00513829 0.00583695 1.51965)
(0.00534687 0.00606314 1.5967)
(0.00449916 0.00665404 1.62983)
(0.00339606 0.00716242 1.65388)
(0.00211561 0.00752087 1.66977)
(0.000718564 0.0077067 1.67765)
(-0.000718697 0.0077067 1.67765)
(-0.00211574 0.00752086 1.66977)
(-0.00339619 0.00716242 1.65387)
(-0.00449927 0.00665403 1.62983)
(-0.00534697 0.00606312 1.5967)
(6.63025e-06 1.04403e-05 0.130762)
(2.9784e-06 1.35649e-05 0.137253)
(7.20801e-07 1.45991e-05 0.142479)
(1.48648e-07 1.467e-05 0.146146)
(-3.21432e-08 1.45912e-05 0.148036)
(2.48502e-08 1.45906e-05 0.148036)
(-1.55776e-07 1.46683e-05 0.146146)
(-7.27782e-07 1.45963e-05 0.142479)
(-2.98511e-06 1.35609e-05 0.137253)
(-6.63618e-06 1.04354e-05 0.130762)
(9.93419e-05 0.000121723 0.378216)
(8.15888e-05 0.000152173 0.395829)
(6.04453e-05 0.000175861 0.409985)
(3.79902e-05 0.000192199 0.419895)
(1.29202e-05 0.000200767 0.424996)
(-1.29409e-05 0.000200766 0.424996)
(-3.80105e-05 0.000192194 0.419895)
(-6.04651e-05 0.000175854 0.409984)
(-8.16078e-05 0.000152163 0.395829)
(-9.93587e-05 0.00012171 0.378216)
(0.000292608 0.000348234 0.606559)
(0.000251093 0.00043158 0.633161)
(0.000192807 0.000502022 0.654439)
(0.000122688 0.000553125 0.669292)
(4.20856e-05 0.000580392 0.676922)
(-4.21189e-05 0.00058039 0.676922)
(-0.000122721 0.000553118 0.669292)
(-0.000192838 0.000502011 0.654439)
(-0.000251123 0.000431565 0.633161)
(-0.000292635 0.000348215 0.606559)
(0.000574763 0.000676302 0.814148)
(0.000499586 0.000831108 0.847435)
(0.000387533 0.000965523 0.873876)
(0.000247335 0.00106431 0.892255)
(8.50239e-05 0.00111722 0.901672)
(-8.50689e-05 0.00111722 0.901672)
(-0.00024738 0.0010643 0.892255)
(-0.000387576 0.000965509 0.873876)
(-0.000499628 0.000831089 0.847435)
(-0.0005748 0.000676279 0.814148)
(0.000915683 0.00107003 0.999826)
(0.000798164 0.00130186 1.03746)
(0.000620555 0.00150491 1.06708)
(0.000395938 0.00165449 1.08756)
(0.000136115 0.00173454 1.09802)
(-0.000136172 0.00173454 1.09802)
(-0.000395993 0.00165448 1.08756)
(-0.000620608 0.00150489 1.06708)
(-0.000798215 0.00130184 1.03746)
(-0.000915729 0.00107 0.999826)
(0.0012782 0.00148538 1.16305)
(0.00111197 0.00178582 1.20278)
(0.000863269 0.00204879 1.23372)
(0.000549646 0.00224202 1.25499)
(0.000188774 0.00234515 1.26581)
(-0.00018884 0.00234514 1.26581)
(-0.000549712 0.00224201 1.25499)
(-0.000863332 0.00204877 1.23372)
(-0.00111203 0.0017858 1.20278)
(-0.00127825 0.00148536 1.16305)
(0.00162287 0.00187593 1.30386)
(0.00140495 0.00222377 1.34371)
(0.00108673 0.00252629 1.37438)
(0.000689659 0.00274735 1.39533)
(0.000236475 0.00286484 1.40595)
(-0.000236551 0.00286484 1.40595)
(-0.000689734 0.00274734 1.39533)
(-0.0010868 0.00252627 1.37438)
(-0.00140502 0.00222375 1.34371)
(-0.00162293 0.00187591 1.30386)
(0.00191267 0.00219775 1.42287)
(0.00164464 0.00256231 1.46123)
(0.00126558 0.00287582 1.49043)
(0.000799774 0.00310307 1.51024)
(0.00027364 0.0032232 1.52024)
(-0.000273725 0.0032232 1.52024)
(-0.000799857 0.00310307 1.51024)
(-0.00126566 0.00287581 1.49043)
(-0.00164472 0.00256229 1.46122)
(-0.00191274 0.00219772 1.42287)
(0.00212011 0.00241646 1.52097)
(0.00180783 0.00276279 1.55687)
(0.00138164 0.00305355 1.5839)
(0.000868331 0.00326208 1.60206)
(0.000296252 0.00337147 1.61116)
(-0.000296344 0.00337147 1.61116)
(-0.000868421 0.00326208 1.60206)
(-0.00138172 0.00305354 1.5839)
(-0.00180791 0.00276277 1.55687)
(-0.00212019 0.00241644 1.52097)
(0.0022315 0.00253764 1.59916)
(0.00188001 0.00280339 1.63287)
(0.00142139 0.00303088 1.65738)
(0.000886736 0.00319141 1.6736)
(0.000301391 0.0032747 1.68166)
(-0.000301488 0.0032747 1.68166)
(-0.00088683 0.00319141 1.6736)
(-0.00142148 0.00303087 1.65738)
(-0.0018801 0.00280338 1.63287)
(-0.00223158 0.00253763 1.59916)
(-4.02379e-07 -1.67886e-07 0.130626)
(-9.53107e-07 1.21184e-07 0.137111)
(-1.09071e-06 6.77148e-08 0.142332)
(-7.16088e-07 -9.23353e-08 0.145996)
(-2.62556e-07 -1.86529e-07 0.147883)
(2.57206e-07 -1.86941e-07 0.147883)
(7.10864e-07 -9.35578e-08 0.145996)
(1.0857e-06 6.57078e-08 0.142332)
(9.48479e-07 1.18434e-07 0.137111)
(3.98393e-07 -1.71202e-07 0.130626)
(2.82187e-05 3.35802e-05 0.377801)
(2.35916e-05 4.26512e-05 0.395394)
(1.77283e-05 5.00642e-05 0.409533)
(1.12967e-05 5.53869e-05 0.419432)
(3.86115e-06 5.82431e-05 0.424527)
(-3.87626e-06 5.8242e-05 0.424527)
(-1.13115e-05 5.53837e-05 0.419432)
(-1.77425e-05 5.00589e-05 0.409533)
(-2.36047e-05 4.2644e-05 0.395394)
(-2.823e-05 3.35715e-05 0.377801)
(9.48918e-05 0.000111104 0.605899)
(8.24961e-05 0.000139065 0.632475)
(6.4015e-05 0.000163356 0.653731)
(4.10521e-05 0.000181385 0.668569)
(1.41292e-05 0.000191116 0.676191)
(-1.41533e-05 0.000191114 0.676191)
(-4.10757e-05 0.00018138 0.668569)
(-6.40377e-05 0.000163348 0.653731)
(-8.25173e-05 0.000139054 0.632475)
(-9.49103e-05 0.000111091 0.605899)
(0.000197922 0.000230246 0.813324)
(0.000173818 0.000285206 0.846593)
(0.000135983 0.000333827 0.873018)
(8.73084e-05 0.000370163 0.891387)
(3.00937e-05 0.000389787 0.9008)
(-3.01262e-05 0.000389785 0.9008)
(-8.73403e-05 0.000370157 0.891387)
(-0.000136013 0.000333817 0.873018)
(-0.000173847 0.000285193 0.846593)
(-0.000197948 0.00023023 0.813324)
(0.000327284 0.000378959 0.998954)
(0.0002879 0.000464349 1.03659)
(0.000225551 0.000540249 1.06621)
(0.000144676 0.000596952 1.0867)
(4.98583e-05 0.000627522 1.09717)
(-4.98986e-05 0.000627519 1.09717)
(-0.000144715 0.000596945 1.0867)
(-0.000225589 0.000540238 1.06621)
(-0.000287935 0.000464334 1.03659)
(-0.000327317 0.000378942 0.998953)
(0.000469304 0.000541002 1.16225)
(0.000411825 0.000654751 1.20203)
(0.000322049 0.000755635 1.23301)
(0.000206086 0.000830708 1.25431)
(7.09465e-05 0.000871051 1.26515)
(-7.09939e-05 0.000871048 1.26515)
(-0.000206133 0.000830701 1.25431)
(-0.000322094 0.000755623 1.23301)
(-0.000411867 0.000654735 1.20203)
(-0.000469343 0.000540983 1.16225)
(0.000608562 0.000698211 1.30328)
(0.000531353 0.000832902 1.34321)
(0.00041392 0.000951519 1.37397)
(0.000263971 0.00103923 1.39497)
(9.07211e-05 0.00108615 1.40562)
(-9.07751e-05 0.00108615 1.40562)
(-0.000264024 0.00103922 1.39497)
(-0.000413971 0.000951508 1.37397)
(-0.000531401 0.000832887 1.34321)
(-0.000608606 0.000698193 1.30328)
(0.000729863 0.000832594 1.42261)
(0.000632923 0.00097655 1.4611)
(0.000490398 0.00110186 1.49043)
(0.000311369 0.00119368 1.51033)
(0.000106771 0.00124251 1.52037)
(-0.00010683 0.00124251 1.52037)
(-0.000311428 0.00119367 1.51033)
(-0.000490455 0.00110185 1.49043)
(-0.000632976 0.000976536 1.4611)
(-0.000729912 0.000832577 1.42261)
(0.000821367 0.000929614 1.52112)
(0.000706113 0.00106896 1.5572)
(0.000543125 0.00118717 1.58439)
(0.000342831 0.00127269 1.60267)
(0.000117204 0.00131777 1.61184)
(-0.000117269 0.00131777 1.61184)
(-0.000342895 0.00127268 1.60267)
(-0.000543186 0.00118716 1.58439)
(-0.000706171 0.00106895 1.5572)
(-0.00082142 0.000929599 1.52112)
(0.000876134 0.000990993 1.59976)
(0.000743248 0.00110068 1.63371)
(0.000565126 0.00119436 1.65841)
(0.000353887 0.00126081 1.67477)
(0.000120492 0.00129541 1.68291)
(-0.00012056 0.00129541 1.68291)
(-0.000353954 0.00126081 1.67477)
(-0.000565191 0.00119435 1.65841)
(-0.00074331 0.00110067 1.63371)
(-0.000876192 0.000990982 1.59976)
(4.84845e-07 1.14296e-06 0.130604)
(-1.85773e-07 1.55516e-06 0.137087)
(-4.57963e-07 1.55474e-06 0.142305)
(-3.73566e-07 1.41949e-06 0.145967)
(-1.4726e-07 1.32009e-06 0.147854)
(1.4347e-07 1.3198e-06 0.147854)
(3.69895e-07 1.41864e-06 0.145967)
(4.54515e-07 1.55337e-06 0.142305)
(1.82628e-07 1.55331e-06 0.137087)
(-4.87459e-07 1.14079e-06 0.130604)
(1.08979e-05 1.39743e-05 0.377705)
(8.23116e-06 1.77424e-05 0.395291)
(5.71923e-06 2.03284e-05 0.409421)
(3.46596e-06 2.19876e-05 0.419314)
(1.15235e-06 2.28257e-05 0.424406)
(-1.16303e-06 2.2825e-05 0.424406)