/*--------------------------------*- C++ -*----------------------------------*\
| =========                 |                                                 |
| \\      /  F ield         | OpenFOAM: The Open Source CFD Toolbox           |
|  \\    /   O peration     | Version:  2106                                  |
|   \\  /    A nd           | Website:  www.openfoam.com                      |
|    \\/     M anipulation  |                                                 |
\*---------------------------------------------------------------------------*/
FoamFile
{
    version     2.0;
    format      ascii;
    arch        "LSB;label=32;scalar=64";
    class       surfaceScalarField;
    location    "0.92";
    object      phi;
}
// * * * * * * * * * * * * * * * * * * * * * * * * * * * * * * * * * * * * * //

dimensions      [0 3 -1 0 0 0 0];

oriented        oriented;

internalField   nonuniform List<scalar> 
29100
(
0.00119026
0.151578
0.0815645
-2.28271e-10
0.00146465
0.156494
0.0896342
0.00125689
0.159939
0.0963754
0.000715805
0.162234
0.1012
-1.38182e-09
0.163386
0.103713
-0.000715808
0.163386
0.103713
-0.00125689
0.162234
0.1012
-0.00146465
0.159939
0.0963754
-0.00119026
0.156494
0.0896342
0.151578
0.0815645
-2.17225e-09
0.00238302
0.209876
0.156688
-4.49784e-10
0.00331009
0.214495
0.170319
0.00295232
0.21759
0.181464
0.00170789
0.219521
0.189346
-3.91177e-09
0.220468
0.193419
-0.0017079
0.220468
0.193419
-0.00295233
0.219521
0.189346
-0.00331009
0.21759
0.181464
-0.00238302
0.214495
0.170319
0.209876
0.156688
-5.94663e-09
0.00303992
0.221099
0.18614
-6.03953e-10
0.00429972
0.224046
0.201282
0.00385966
0.225967
0.21347
0.00223547
0.227015
0.222013
-6.44185e-09
0.227501
0.226404
-0.00223549
0.227501
0.226404
-0.00385967
0.227015
0.222013
-0.00429973
0.225967
0.21347
-0.00303993
0.224046
0.201282
0.221099
0.18614
-9.32226e-09
0.00347196
0.207772
0.193294
-7.0763e-10
0.00484399
0.20904
0.208573
0.00433912
0.209811
0.220719
0.0025087
0.210052
0.229171
-9.02729e-09
0.210124
0.233497
-0.00250872
0.210124
0.233497
-0.00433914
0.210052
0.229171
-0.004844
0.209811
0.220719
-0.00347197
0.20904
0.208573
0.207772
0.193294
-1.24241e-08
0.00370298
0.182662
0.187882
-7.98021e-10
0.00509652
0.182636
0.202794
0.00455299
0.182536
0.214527
0.00262891
0.182203
0.222645
-1.17091e-08
0.181985
0.226786
-0.00262894
0.181985
0.226786
-0.00455301
0.182203
0.222645
-0.00509654
0.182536
0.214527
-0.003703
0.182636
0.202794
0.182662
0.187882
-1.53325e-08
0.00378851
0.153103
0.17528
-8.94157e-10
0.00516287
0.15222
0.189671
0.00460272
0.151551
0.200903
0.00265613
0.150882
0.208634
-1.4569e-08
0.150502
0.212568
-0.00265616
0.150502
0.212568
-0.00460274
0.150882
0.208634
-0.00516289
0.151551
0.200903
-0.00378853
0.15222
0.189671
0.153103
0.17528
-1.80847e-08
0.00379655
0.123207
0.158644
-1.06585e-09
0.00513757
0.12184
0.172514
0.00457325
0.120855
0.183269
0.00263897
0.120042
0.190636
-1.75821e-08
0.119602
0.194375
-0.002639
0.119602
0.194375
-0.00457328
0.120042
0.190636
-0.0051376
0.120855
0.183269
-0.00379657
0.12184
0.172514
0.123207
0.158644
-2.07145e-08
0.00376194
0.0952064
0.139819
-1.30435e-09
0.00508333
0.0936151
0.153224
0.00452482
0.0925121
0.163561
0.00261222
0.0917008
0.170609
-2.07002e-08
0.091281
0.174179
-0.00261226
0.091281
0.174179
-0.00452486
0.0917008
0.170609
-0.00508336
0.0925121
0.16356
-0.00376197
0.0936151
0.153224
0.0952064
0.139819
-2.31923e-08
0.00373005
0.0702233
0.119868
-1.66884e-09
0.00506507
0.0685737
0.132872
0.00451001
0.0675258
0.142851
0.00260286
0.0668323
0.149626
-2.37646e-08
0.0664891
0.153049
-0.0026029
0.0664891
0.153049
-0.00451005
0.0668323
0.149626
-0.00506511
0.0675258
0.142851
-0.00373008
0.0685737
0.132872
0.0702233
0.119868
-2.53754e-08
0.003952
0.0993975
-2.16682e-09
0.0485244
0.00525621
0.112061
0.0472194
0.00462335
0.121728
0.0463907
0.00264819
0.128263
0.0458894
-2.64351e-08
0.131557
0.0456437
-0.00264824
0.131557
0.0456437
-0.00462339
0.128263
0.0458894
-0.00525625
0.121728
0.0463907
-0.00395203
0.112061
0.0472194
0.0993975
-2.70729e-08
0.0485244
-0.000242272
0.0368201
0.0449867
-3.6495e-10
-0.000244333
0.0400198
0.0496165
-0.000171722
0.0427236
0.0535791
-8.55102e-05
0.0446572
0.056457
-2.48364e-09
0.0456574
0.0579703
8.55054e-05
0.0456574
0.0579703
0.000171718
0.0446572
0.056457
0.000244329
0.0427236
0.0535791
0.000242268
0.0400198
0.0496165
0.0368201
0.0449867
-3.77838e-09
6.54871e-05
0.0813397
0.112103
-6.07604e-10
0.000255388
0.0871763
0.122973
0.000305081
0.0920301
0.132108
0.000204331
0.0954311
0.138673
-7.72123e-09
0.0971781
0.142102
-0.000204346
0.0971781
0.142102
-0.000305096
0.0954311
0.138673
-0.000255401
0.0920301
0.132108
-6.54989e-05
0.0871763
0.122973
0.0813397
0.112103
-1.10604e-08
0.00061981
0.113095
0.153765
-8.61504e-10
0.00104154
0.119859
0.168177
0.00101903
0.125411
0.180112
0.000622769
0.129225
0.188615
-1.30396e-08
0.13117
0.193035
-0.000622794
0.13117
0.193035
-0.00101905
0.129225
0.188615
-0.00104156
0.125411
0.180112
-0.00061983
0.119859
0.168177
0.113095
0.153765
-1.79263e-08
0.00124412
0.129731
0.175414
-1.08817e-09
0.00189261
0.136176
0.191608
0.00178083
0.141399
0.204843
0.00106358
0.144912
0.214201
-1.84948e-08
0.146687
0.219044
-0.00106362
0.146687
0.219044
-0.00178086
0.144912
0.214201
-0.00189264
0.141399
0.204843
-0.00124415
0.136176
0.191608
0.129731
0.175414
-2.43233e-08
0.00185466
0.132994
0.182764
-1.3528e-09
0.00270145
0.138425
0.199698
0.00249666
0.142757
0.213373
0.00147484
0.145603
0.222976
-2.40674e-08
0.147023
0.227925
-0.00147488
0.147023
0.227925
-0.0024967
0.145603
0.222976
-0.00270149
0.142757
0.213373
-0.00185469
0.138425
0.199698
0.132994
0.182764
-3.02478e-08
0.00240709
0.125937
0.17993
-1.67484e-09
0.00342108
0.130081
0.197001
0.00312906
0.13331
0.210643
0.00183696
0.13537
0.22016
-2.98134e-08
0.136382
0.225046
-0.00183702
0.136382
0.225046
-0.00312911
0.13537
0.22016
-0.00342113
0.13331
0.210643
-0.00240713
0.130081
0.197001
0.125937
0.17993
-3.56786e-08
0.00287812
0.111808
0.169894
-2.15289e-09
0.00403498
0.114659
0.186779
0.00366943
0.1168
0.200144
0.00214691
0.118117
0.209411
-3.55636e-08
0.118752
0.214152
-0.00214698
0.118752
0.214152
-0.00366949
0.118117
0.209411
-0.00403504
0.1168
0.200144
-0.00287816
0.114659
0.186778
0.111808
0.169894
-4.06074e-08
0.00326187
0.0935453
0.15482
-2.75857e-09
0.00455287
0.0952328
0.171359
0.00413158
0.0964385
0.184343
0.00241357
0.0971515
0.193293
-4.12267e-08
0.097489
0.197856
-0.00241365
0.097489
0.197856
-0.00413165
0.0971515
0.193293
-0.00455293
0.0964385
0.184343
-0.00326193
0.0952329
0.171359
0.0935453
0.15482
-4.48766e-08
0.00359443
0.0735632
0.136256
-3.65231e-09
0.00502431
0.0742813
0.152394
0.00455356
0.0747963
0.164964
0.00265587
0.0750972
0.173578
-4.6346e-08
0.0752396
0.177955
-0.00265596
0.0752396
0.177955
-0.00455364
0.0750972
0.173578
-0.00502438
0.0747963
0.164964
-0.00359449
0.0742813
0.152394
0.0735632
0.136256
-4.81626e-08
0.004024
0.115302
-4.776e-09
0.0536348
0.00557451
0.131048
0.053744
0.00501275
0.143204
0.0538813
0.00290747
0.151486
0.0539795
-5.03098e-08
0.155679
0.0540253
-0.00290757
0.155679
0.0540253
-0.00501283
0.151486
0.0539795
-0.00557459
0.143204
0.0538813
-0.00402406
0.131048
0.053744
0.115302
-5.01714e-08
0.0536348
3.9607e-05
0.010078
0.034869
-4.15373e-10
3.55508e-05
0.0111204
0.0385001
2.99617e-05
0.012005
0.0415797
1.66063e-05
0.0126618
0.0438086
-2.75271e-09
0.0130078
0.0449791
-1.66118e-05
0.0130078
0.0449791
-2.99669e-05
0.0126618
0.0438086
-3.55556e-05
0.012005
0.0415797
-3.96114e-05
0.0111204
0.0385001
0.010078
0.034869
-4.25101e-09
0.000283758
0.0305591
0.0913382
-7.91757e-10
0.000385393
0.0332919
0.100699
0.000344469
0.0355787
0.108575
0.000200945
0.037228
0.11425
-8.88566e-09
0.0380897
0.117221
-0.000200962
0.0380897
0.117221
-0.000344486
0.037228
0.11425
-0.000385408
0.0355787
0.108575
-0.000283772
0.0332919
0.100699
0.0305591
0.0913382
-1.26958e-08
0.000606089
0.0516457
0.132072
-1.13038e-09
0.000860055
0.0556826
0.145533
0.000779217
0.0590162
0.156755
0.000456736
0.0613672
0.164799
-1.53505e-08
0.062585
0.168996
-0.000456767
0.062585
0.168996
-0.000779245
0.0613672
0.164798
-0.000860081
0.0590162
0.156755
-0.000606112
0.0556826
0.145533
0.0516457
0.132072
-2.0814e-08
0.000976629
0.0675926
0.15849
-1.43126e-09
0.00140164
0.0722115
0.174654
0.00128024
0.0759795
0.188001
0.000751878
0.0785852
0.197511
-2.20407e-08
0.0799228
0.202458
-0.000751921
0.0799228
0.202458
-0.00128028
0.0785852
0.197511
-0.00140168
0.0759795
0.188001
-0.000976661
0.0722115
0.174654
0.0675926
0.15849
-2.84264e-08
0.00137006
0.0763866
0.1726
-1.79704e-09
0.00196251
0.0809225
0.190394
0.001797
0.0845741
0.204944
0.00105563
0.087051
0.215251
-2.88183e-08
0.0883099
0.220593
-0.00105569
0.0883099
0.220593
-0.00179705
0.087051
0.215251
-0.00196256
0.0845741
0.204944
-0.0013701
0.0809225
0.190394
0.0763866
0.1726
-3.54299e-08
0.00176582
0.0780432
0.176507
-2.27056e-09
0.0025123
0.0820249
0.195153
0.00229939
0.0851755
0.210255
0.00135001
0.0872697
0.220891
-3.5674e-08
0.0883224
0.226383
-0.00135008
0.0883224
0.226383
-0.00229946
0.0872697
0.220891
-0.00251236
0.0851755
0.210255
-0.00176586
0.0820249
0.195153
0.0780432
0.176507
-4.17292e-08
0.00214038
0.0736429
0.172154
-2.95274e-09
0.00302655
0.0768051
0.191112
0.0027673
0.0792497
0.206329
0.00162379
0.0808408
0.216984
-4.23139e-08
0.0816315
0.222467
-0.00162387
0.0816315
0.222467
-0.00276738
0.0808408
0.216984
-0.00302661
0.0792497
0.206329
-0.00214043
0.0768051
0.191112
0.0736429
0.172154
-4.72749e-08
0.00247751
0.0647501
0.161236
-3.81583e-09
0.00349511
0.0669945
0.180152
0.00319404
0.0686862
0.195207
0.0018733
0.0697675
0.205687
-4.86322e-08
0.0703
0.211061
-0.00187339
0.0703
0.211061
-0.00319413
0.0697675
0.205687
-0.00349518
0.0686862
0.195207
-0.00247757
0.0669946
0.180152
0.0647501
0.161235
-5.18489e-08
0.0027898
0.05304
0.145176
-5.03244e-09
0.00393396
0.0544012
0.163843
0.00358937
0.0554211
0.178573
0.0021022
0.0560706
0.188762
-5.40466e-08
0.05639
0.193967
-0.0021023
0.05639
0.193967
-0.00358947
0.0560706
0.188762
-0.00393404
0.0554211
0.178573
-0.00278986
0.0544012
0.163843
0.05304
0.145176
-5.50615e-08
0.00313577
0.125154
-6.48363e-09
0.0400521
0.00438711
0.143487
0.0407111
0.00398015
0.157793
0.041239
0.00232163
0.167621
0.0415936
-5.78495e-08
0.172622
0.0417688
-0.00232174
0.172622
0.0417688
-0.00398026
0.167621
0.0415936
-0.0043872
0.157793
0.041239
-0.00313583
0.143486
0.0407111
0.125154
-5.66174e-08
0.0400521
-3.18704e-05
0.00411746
0.0307834
-4.02373e-10
-4.55088e-05
0.0045341
0.0339797
-3.66784e-05
0.00488764
0.0366832
-2.02166e-05
0.00515051
0.0386416
-2.58941e-09
0.00528822
0.0396707
2.02115e-05
0.00528822
0.0396707
3.66736e-05
0.00515051
0.0386416
4.55042e-05
0.00488764
0.0366832
3.1866e-05
0.0045341
0.0339797
0.00411746
0.0307834
-4.02865e-09
1.03254e-05
0.0127871
0.0826582
-7.46567e-10
1.77981e-05
0.0140119
0.0912141
2.22424e-05
0.0150497
0.0984086
1.58405e-05
0.0158062
0.103601
-8.55011e-09
0.0162029
0.106323
-1.58573e-05
0.0162029
0.106323
-2.22584e-05
0.0158062
0.103601
-1.78124e-05
0.0150497
0.0984086
-1.03379e-05
0.0140119
0.0912141
0.0127871
0.0826582
-1.212e-08
0.000125063
0.0227644
0.12197
-1.15055e-09
0.000189645
0.0247988
0.134681
0.000182109
0.0265113
0.145301
0.000110942
0.0277406
0.152935
-1.49476e-08
0.0283824
0.156928
-0.000110971
0.0283824
0.156928
-0.000182137
0.0277406
0.152935
-0.00018967
0.0265113
0.145301
-0.000125085
0.0247988
0.134681
0.0227644
0.12197
-2.0194e-08
0.000297589
0.0315658
0.149391
-1.54049e-09
0.00044373
0.0341574
0.165149
0.000418306
0.036318
0.17822
0.000250803
0.0378462
0.187573
-2.1634e-08
0.0386391
0.192452
-0.000250845
0.0386391
0.192452
-0.000418346
0.0378462
0.187573
-0.000443766
0.036318
0.17822
-0.000297621
0.0341574
0.165149
0.0315658
0.149391
-2.77531e-08
0.000512119
0.0376532
0.166001
-2.01041e-09
0.000752779
0.0404576
0.183853
0.000704147
0.0427656
0.198545
0.000419454
0.0443734
0.209009
-2.84138e-08
0.0452013
0.214451
-0.00041951
0.0452013
0.214451
-0.000704199
0.0443734
0.209009
-0.000752825
0.0427657
0.198545
-0.000512158
0.0404576
0.183853
0.0376532
0.166001
-3.46734e-08
0.000752444
0.0403669
0.173041
-2.59013e-09
0.00109248
0.0430594
0.192211
0.0010164
0.0452377
0.207859
0.000603134
0.0467306
0.218947
-3.52239e-08
0.0474928
0.224695
-0.000603203
0.0474928
0.224695
-0.00101647
0.0467306
0.218947
-0.00109254
0.0452378
0.207859
-0.000752492
0.0430594
0.192211
0.040367
0.173041
-4.08407e-08
0.00100109
0.0397244
0.171796
-3.37677e-09
0.00144088
0.0420569
0.191675
0.00133557
0.0439032
0.207769
0.000790541
0.0451472
0.219112
-4.17089e-08
0.0457766
0.224974
-0.000790622
0.0457766
0.224974
-0.00133564
0.0451472
0.219112
-0.00144095
0.0439032
0.207769
-0.00100115
0.0420569
0.191675
0.0397244
0.171796
-4.61846e-08
0.00124493
0.0362076
0.163507
-4.34962e-09
0.00178445
0.0380268
0.183643
0.00164976
0.0394333
0.199812
0.000974584
0.0403663
0.211143
-4.7756e-08
0.0408345
0.216977
-0.000974677
0.0408345
0.216977
-0.00164984
0.0403663
0.211143
-0.00178453
0.0394333
0.199812
-0.00124499
0.0380269
0.183643
0.0362076
0.163507
-5.0472e-08
0.00148814
0.0305664
0.149329
-5.63563e-09
0.00212558
0.0318197
0.169412
0.00195749
0.0327733
0.185401
0.0011531
0.0334002
0.196532
-5.27719e-08
0.0337132
0.202241
-0.0011532
0.0337132
0.202241
-0.00195758
0.0334002
0.196532
-0.00212566
0.0327733
0.185401
-0.00148821
0.0318197
0.169412
0.0305664
0.149329
-5.33207e-08
0.00174535
0.130311
-7.10369e-09
0.0236645
0.00247471
0.150188
0.0243888
0.00226602
0.165816
0.024959
0.00132918
0.176615
0.0253429
-5.60813e-08
0.18213
0.0255347
-0.00132929
0.18213
0.0255347
-0.00226612
0.176615
0.0253429
-0.0024748
0.165816
0.024959
-0.00174541
0.150188
0.0243888
0.130311
-5.44749e-08
0.0236645
2.11769e-06
0.00134814
0.0294332
-3.75256e-10
-2.82067e-07
0.00149693
0.0324852
1.25495e-07
0.00162633
0.0350565
1.43119e-07
0.00172511
0.0369165
-2.21137e-09
0.00177779
0.037893
-1.47484e-07
0.00177779
0.037893
-1.29693e-07
0.00172511
0.0369165
2.78118e-07
0.00162633
0.0350565
-2.12126e-06
0.00149693
0.0324851
0.00134814
0.0294332
-3.53815e-09
3.11655e-05
0.00483714
0.079138
-7.24574e-10
4.03065e-05
0.0053389
0.087363
3.71315e-05
0.00576999
0.0942681
2.20269e-05
0.00609024
0.0992508
-7.43028e-09
0.00625992
0.101863
-2.20415e-05
0.00625992
0.101863
-3.71455e-05
0.00609024
0.0992507
-4.03194e-05
0.00576999
0.0942681
-3.1177e-05
0.0053389
0.087363
0.00483715
0.079138
-1.07977e-08
8.69937e-05
0.00933311
0.117387
-1.13532e-09
0.000123324
0.0102444
0.12974
0.000113842
0.0110204
0.14006
6.75737e-05
0.0115866
0.147485
-1.31209e-08
0.0118849
0.15137
-6.75995e-05
0.0118849
0.15137
-0.000113866
0.0115866
0.147485
-0.000123346
0.0110204
0.14006
-8.70132e-05
0.0102444
0.129739
0.00933311
0.117387
-1.78836e-08
0.000169352
0.0137161
0.144839
-1.53884e-09
0.000245924
0.0149662
0.160351
0.000228412
0.0160207
0.173237
0.000135651
0.0167786
0.182474
-1.91121e-08
0.0171755
0.187297
-0.000135688
0.0171755
0.187297
-0.000228447
0.0167786
0.182474
-0.000245955
0.0160208
0.173237
-0.000169379
0.0149662
0.160351
0.0137161
0.144839
-2.45964e-08
0.000275249
0.017144
0.162298
-2.03689e-09
0.000401207
0.018587
0.180107
0.000373396
0.0197901
0.194804
0.000221699
0.0206424
0.205297
-2.51975e-08
0.0210855
0.210762
-0.000221748
0.0210855
0.210762
-0.000373442
0.0206424
0.205297
-0.000401248
0.0197901
0.194804
-0.000275284
0.018587
0.180107
0.017144
0.162297
-3.07743e-08
0.000399246
0.0191128
0.170673
-2.64456e-09
0.000580073
0.0205801
0.190037
0.000539667
0.0217853
0.205904
0.000320168
0.0226264
0.217182
-3.12938e-08
0.0230603
0.223041
-0.000320229
0.0230603
0.223041
-0.000539723
0.0226264
0.217182
-0.000580123
0.0217853
0.205904
-0.000399288
0.0205801
0.190037
0.0191128
0.170673
-3.62736e-08
0.000533777
0.0194451
0.17093
-3.42187e-09
0.000772159
0.0207848
0.191232
0.000717524
0.0218648
0.207744
0.000425261
0.022607
0.219424
-3.70562e-08
0.0229866
0.225473
-0.000425333
0.0229866
0.225473
-0.000717591
0.022607
0.219424
-0.000772217
0.0218648
0.207744
-0.000533825
0.0207848
0.191232
0.0194451
0.170929
-4.10174e-08
0.000672024
0.0182361
0.164044
-4.35228e-09
0.000969258
0.0193363
0.184794
0.000899113
0.0202052
0.201542
0.000532129
0.0207935
0.213323
-4.23817e-08
0.0210918
0.219404
-0.000532212
0.0210918
0.219404
-0.000899188
0.0207935
0.213323
-0.000969324
0.0202053
0.201542
-0.000672077
0.0193363
0.184794
0.0182362
0.164044
-4.4789e-08
0.000813958
0.0157785
0.150973
-5.54745e-09
0.0011684
0.0165822
0.171812
0.00107953
0.0172048
0.188491
0.000637214
0.0176209
0.200147
-4.67347e-08
0.0178304
0.20614
-0.000637304
0.0178304
0.20614
-0.00107961
0.0176209
0.200147
-0.00116847
0.0172048
0.188491
-0.000814014
0.0165822
0.171812
0.0157785
0.150973
-4.72526e-08
0.000954166
0.132641
-6.86422e-09
0.0124939
0.00136171
0.153373
0.0129896
0.00125339
0.16975
0.0133791
0.000737647
0.181109
0.0136433
-4.95356e-08
0.186921
0.0137763
-0.000737743
0.186921
0.0137763
-0.00125348
0.181109
0.0136433
-0.00136178
0.16975
0.0133791
-0.000954224
0.153373
0.0129896
0.132641
-4.82221e-08
0.0124939
-5.62114e-06
0.000588483
0.0288503
-3.06299e-10
-8.37828e-06
0.000647398
0.0318405
-6.63502e-06
0.00069724
0.0343575
-3.65556e-06
0.00073513
0.0361784
-1.74393e-09
0.000755047
0.0371343
3.65197e-06
0.000755047
0.0371343
6.63162e-06
0.000735131
0.0361784
8.37517e-06
0.000697241
0.0343575
5.6181e-06
0.000647399
0.0318405
0.000588483
0.0288503
-2.9305e-09
-8.52521e-07
0.00205045
0.0776769
-6.70393e-10
-1.8828e-06
0.00225888
0.0857526
-6.04972e-07
0.0024365
0.0925276
1.87704e-07
0.00256853
0.0974166
-5.92239e-09
0.00263849
0.0999793
-1.98635e-07
0.00263849
0.0999793
5.9392e-07
0.00256854
0.0974166
1.87152e-06
0.0024365
0.0925276
8.43047e-07
0.00225889
0.0857525
0.00205045
0.0776769
-8.90425e-09
1.79386e-05
0.00398835
0.115431
-1.05522e-09
2.65406e-05
0.0043862
0.127604
2.60306e-05
0.00472527
0.137772
1.60852e-05
0.00497406
0.14509
-1.07014e-08
0.00510554
0.148919
-1.61064e-05
0.00510554
0.148919
-2.60505e-05
0.00497406
0.14509
-2.65586e-05
0.00472528
0.137772
-1.79546e-05
0.00438621
0.127604
0.00398836
0.115431
-1.47767e-08
5.14224e-05
0.0059777
0.142798
-1.44022e-09
7.65513e-05
0.00655061
0.158162
7.28698e-05
0.00703629
0.170929
4.39902e-05
0.00738834
0.180089
-1.57063e-08
0.00757353
0.184873
-4.4021e-05
0.00757354
0.184873
-7.28986e-05
0.00738834
0.180089
-7.65772e-05
0.0070363
0.170929
-5.1445e-05
0.00655062
0.158162
0.00597771
0.142798
-2.03779e-08
9.83581e-05
0.00764318
0.160534
-1.90088e-09
0.000145698
0.00833541
0.178274
0.000137577
0.00891679
0.192931
8.24709e-05
0.00933294
0.203407
-2.07841e-08
0.00955054
0.208868
-8.25116e-05
0.00955054
0.208868
-0.000137615
0.00933294
0.203407
-0.000145732
0.0089168
0.192931
-9.83868e-05
0.00833543
0.178274
0.00764319
0.160534
-2.55544e-08
0.000156584
0.00871674
0.169443
-2.45098e-09
0.000230328
0.00945144
0.188847
0.000216526
0.0100603
0.204774
0.000129332
0.0104903
0.216112
-2.58689e-08
0.0107136
0.222007
-0.000129382
0.0107136
0.222007
-0.000216572
0.0104903
0.216112
-0.00023037
0.0100603
0.204774
-0.000156619
0.00945145
0.188847
0.00871675
0.169443
-3.01782e-08
0.000222833
0.00906044
0.170363
-3.13973e-09
0.000325796
0.00975903
0.190821
0.000305295
0.0103281
0.207497
0.000181907
0.0107243
0.219313
-3.06644e-08
0.0109284
0.22544
-0.000181966
0.0109284
0.22544
-0.00030535
0.0107243
0.219313
-0.000325844
0.0103281
0.207497
-0.000222872
0.00975905
0.190821
0.00906046
0.170363
-3.41781e-08
0.000294038
0.00866411
0.164147
-3.95407e-09
0.000428107
0.00926133
0.185158
0.000399891
0.0097386
0.202159
0.000237686
0.0100659
0.214144
-3.50831e-08
0.0102331
0.220337
-0.000237754
0.0102331
0.220337
-0.000399954
0.010066
0.214144
-0.000428161
0.00973861
0.202159
-0.000294082
0.00926134
0.185158
0.00866412
0.164147
-3.73709e-08
0.000370363
0.00762467
0.151642
-4.95876e-09
0.000535521
0.00808062
0.172828
0.000497455
0.0084375
0.18983
0.000294615
0.00867872
0.201737
-3.86857e-08
0.00880093
0.207867
-0.00029469
0.00880093
0.207867
-0.000497524
0.00867873
0.201737
-0.00053558
0.00843751
0.18983
-0.00037041
0.00808063
0.172828
0.00762468
0.151642
-3.94814e-08
0.000446879
0.133695
-6.01812e-09
0.00612375
0.000642369
0.154839
0.00641911
0.000594433
0.171583
0.00665233
0.000350971
0.183219
0.00681145
-4.1014e-08
0.189181
0.00689194
-0.000351051
0.189181
0.00689194
-0.000594505
0.183219
0.00681145
-0.00064243
0.171583
0.00665233
-0.000446927
0.154839
0.00641912
0.133695
-4.0372e-08
0.00612376
-8.5451e-07
0.000191803
0.0286594
-2.47543e-10
-1.65495e-06
0.000212446
0.0316289
-1.20331e-06
0.000230409
0.0341266
-6.42654e-07
0.000244507
0.0359333
-1.34857e-09
0.000252029
0.0368817
6.39966e-07
0.00025203
0.0368817
1.20073e-06
0.000244508
0.0359333
1.65246e-06
0.000230409
0.0341266
8.52138e-07
0.000212447
0.0316289
0.000191804
0.0286594
-2.2547e-09
1.86204e-06
0.000748586
0.0771183
-5.3639e-10
1.9861e-06
0.000828943
0.0851359
2.15312e-06
0.000898534
0.0918593
1.40975e-06
0.000951193
0.0967106
-4.6346e-09
0.000979302
0.0992535
-1.41891e-06
0.000979303
0.0992535
-2.16183e-06
0.000951194
0.0967106
-1.99408e-06
0.000898536
0.0918593
-1.86916e-06
0.000828945
0.0851359
0.000748589
0.0771182
-6.89186e-09
1.00727e-05
0.00153919
0.11463
-8.74526e-10
1.41441e-05
0.00170117
0.126727
1.34305e-05
0.00184079
0.13683
8.13582e-06
0.00194458
0.144102
-8.29851e-09
0.0019998
0.147907
-8.15214e-06
0.00199981
0.147907
-1.34459e-05
0.00194459
0.144102
-1.41582e-05
0.0018408
0.13683
-1.00851e-05
0.00170118
0.126727
0.00153919
0.11463
-1.1536e-08
2.44339e-05
0.00239388
0.141919
-1.21533e-09
3.55997e-05
0.0026372
0.157214
3.35322e-05
0.00284555
0.169927
2.01163e-05
0.00299836
0.179048
-1.22136e-08
0.00307927
0.183814
-2.01402e-05
0.00307927
0.183814
-3.35547e-05
0.00299837
0.179048
-3.562e-05
0.00284556
0.169927
-2.44514e-05
0.0026372
0.157214
0.00239389
0.141919
-1.60047e-08
4.50159e-05
0.00315042
0.159732
-1.6205e-09
6.61103e-05
0.00345527
0.177435
6.21717e-05
0.0037139
0.192067
3.71811e-05
0.00390119
0.20253
-1.62219e-08
0.00399975
0.207985
-3.72129e-05
0.00399976
0.207985
-6.22014e-05
0.00390119
0.20253
-6.61368e-05
0.00371391
0.192067
-4.50384e-05
0.00345528
0.177435
0.00315043
0.159732
-2.01567e-08
7.1251e-05
0.00368045
0.168841
-2.09408e-09
0.00010459
0.00401461
0.188254
9.82295e-05
0.00429455
0.2042
5.86407e-05
0.00449459
0.215558
-2.02442e-08
0.00459915
0.221466
-5.86802e-05
0.00459915
0.221466
-9.82662e-05
0.0044946
0.215558
-0.000104622
0.00429456
0.2042
-7.12781e-05
0.00401462
0.188254
0.00368046
0.168841
-2.3886e-08
0.000101936
0.0039055
0.170036
-2.65879e-09
0.000149229
0.00423271
0.190556
0.000139933
0.00450245
0.207298
8.34079e-05
0.00469249
0.219172
-2.40433e-08
0.00479102
0.225332
-8.34548e-05
0.00479102
0.225332
-0.000139977
0.00469249
0.219172
-0.000149267
0.00450246
0.207298
-0.000101967
0.00423272
0.190556
0.00390551
0.170036
-2.7136e-08
0.000135769
0.00380249
0.164114
-3.3027e-09
0.000198169
0.00409022
0.185238
0.000185353
0.00432301
0.202352
0.000110252
0.0044845
0.214427
-2.75496e-08
0.00456747
0.220671
-0.000110306
0.00456747
0.220671
-0.000185402
0.0044845
0.214427
-0.000198212
0.00432302
0.202352
-0.000135804
0.00409023
0.185238
0.0038025
0.164114
-2.97646e-08
0.000172489
0.00339992
0.151872
-4.07474e-09
0.000249972
0.0036262
0.173214
0.000232566
0.00380493
0.190365
0.000137878
0.00392682
0.20239
-3.04269e-08
0.00398886
0.208583
-0.000137937
0.00398887
0.208583
-0.00023262
0.00392683
0.20239
-0.000250018
0.00380494
0.190365
-0.000172526
0.00362621
0.173214
0.00339993
0.151872
-3.15627e-08
0.000207516
0.134115
-4.88322e-09
0.00277234
0.000299724
0.15545
0.00292285
0.000278318
0.172368
0.00304199
0.000164684
0.184136
0.00312366
-3.23342e-08
0.19017
0.00316514
-0.000164746
0.19017
0.00316514
-0.000278375
0.184136
0.00312366
-0.000299772
0.172368
0.00304199
-0.000207554
0.15545
0.00292285
0.134115
-3.24418e-08
0.00277234
-1.39052e-06
7.81853e-05
0.0285826
-1.88776e-10
-2.00147e-06
8.58412e-05
0.0315436
-1.60654e-06
9.23935e-05
0.0340338
-8.86338e-07
9.74965e-05
0.0358351
-9.85945e-10
0.000100193
0.0367806
8.84391e-07
0.000100193
0.0367806
1.60466e-06
9.74968e-05
0.0358351
1.99967e-06
9.23939e-05
0.0340338
1.3888e-06
8.58418e-05
0.0315436
7.81858e-05
0.0285826
-1.6518e-09
-1.62818e-06
0.000294441
0.0769036
-4.54935e-10
-2.44872e-06
0.000325246
0.0848974
-1.9596e-06
0.000351862
0.0915993
-1.03946e-06
0.000372047
0.0964351
-3.42024e-09
0.000382812
0.0989698
1.03273e-06
0.000382812
0.0989698
1.95317e-06
0.000372048
0.0964351
2.44272e-06
0.000351863
0.0915993
1.6226e-06
0.000325248
0.0848973
0.000294443
0.0769036
-5.11581e-09
8.73729e-07
0.000606518
0.114318
-7.24682e-10
1.15089e-06
0.00067099
0.126381
1.35934e-06
0.000726576
0.136455
9.5063e-07
0.000768114
0.143706
-6.14706e-09
0.000790264
0.1475
-9.62703e-07
0.000790265
0.1475
-1.37077e-06
0.000768116
0.143706
-1.16118e-06
0.000726579
0.136455
-8.82399e-07
0.000670994
0.126381
0.000606522
0.114317
-8.49746e-09
6.08183e-06
0.000955361
0.141564
-1.00464e-09
8.99433e-06
0.00105542
0.156827
8.71578e-06
0.00114135
0.169512
5.33683e-06
0.00120478
0.178615
-9.08651e-09
0.00123847
0.183371
-5.35463e-06
0.00123847
0.183371
-8.73252e-06
0.00120478
0.178615
-9.00945e-06
0.00114135
0.169512
-6.09502e-06
0.00105542
0.156827
0.000955367
0.141564
-1.19777e-08
1.42476e-05
0.00127691
0.159396
-1.32437e-09
2.1126e-05
0.0014061
0.177078
2.01097e-05
0.00151617
0.191693
1.21298e-05
0.00159644
0.202146
-1.21133e-08
0.00163885
0.207596
-1.21535e-05
0.00163885
0.207596
-2.01319e-05
0.00159645
0.202146
-2.11459e-05
0.00151618
0.191693
-1.42646e-05
0.0014061
0.177078
0.00127692
0.159396
-1.52055e-08
2.51323e-05
0.00151541
0.168578
-1.68872e-09
3.71726e-05
0.00166101
0.187987
3.51783e-05
0.00178361
0.203935
2.11087e-05
0.00187189
0.215297
-1.51591e-08
0.00191822
0.221208
-2.11383e-05
0.00191822
0.221208
-3.52058e-05
0.00187189
0.215297
-3.71969e-05
0.00178362
0.203934
-2.51528e-05
0.00166102
0.187987
0.00151542
0.168578
-1.81142e-08
3.82918e-05
0.00163234
0.169881
-2.1141e-09
5.64457e-05
0.00177867
0.19042
5.32404e-05
0.00190001
0.207185
3.18528e-05
0.00198616
0.219079
-1.80475e-08
0.00203102
0.225251
-3.18881e-05
0.00203102
0.225251
-5.3273e-05
0.00198617
0.219079
-5.64743e-05
0.00190002
0.207185
-3.83155e-05
0.00177868
0.19042
0.00163235
0.169881
-2.06771e-08
5.32395e-05
0.00161118
0.164082
-2.5942e-09
7.8203e-05
0.00174313
0.185248
7.3496e-05
0.00185057
0.202406
4.38443e-05
0.00192566
0.214517
-2.07246e-08
0.00196439
0.220782
-4.38847e-05
0.00196439
0.220781
-7.35331e-05
0.00192566
0.214517
-7.82353e-05
0.00185058
0.202406
-5.32658e-05
0.00174314
0.185248
0.00161119
0.164082
-2.2793e-08
6.99449e-05
0.00145792
0.151956
-3.1518e-09
0.000101858
0.0015644
0.173361
9.51131e-05
0.00164901
0.190574
5.65147e-05
0.00170707
0.202647
-2.29523e-08
0.00173673
0.208868
-5.65593e-05
0.00173673
0.208868
-9.51539e-05
0.00170708
0.202647
-0.000101893
0.00164901
0.190574
-6.99732e-05
0.00156441
0.173361
0.00145793
0.151956
-2.43167e-08
8.62013e-05
0.134286
-3.70184e-09
0.00120055
0.00012514
0.155702
0.0012733
0.000116644
0.172694
0.00133113
6.91746e-05
0.18452
0.00137092
-2.44971e-08
0.190585
0.00139119
-6.92221e-05
0.190585
0.00139119
-0.000116687
0.18452
0.00137093
-0.000125177
0.172694
0.00133113
-8.62308e-05
0.155702
0.0012733
0.134286
-2.52123e-08
0.00120056
-4.01988e-07
2.04547e-05
0.0285625
-1.22108e-10
-6.18057e-07
2.26559e-05
0.0315212
-4.95439e-07
2.46648e-05
0.0340091
-2.74723e-07
2.63163e-05
0.0358086
-6.94907e-10
2.72066e-05
0.0367531
2.73353e-07
2.72067e-05
0.0367531
4.94114e-07
2.63165e-05
0.0358086
6.16785e-07
2.46651e-05
0.034009
4.0078e-07
2.26563e-05
0.0315212
2.0455e-05
0.0285625
-1.15825e-09
-5.15596e-07
9.16187e-05
0.076833
-3.04607e-10
-8.75289e-07
0.000101986
0.0848184
-7.28709e-07
0.000111211
0.0915126
-3.98193e-07
0.000118387
0.0963427
-2.42813e-09
0.000122258
0.0988744
3.93418e-07
0.000122259
0.0988743
7.24146e-07
0.000118387
0.0963427
8.71018e-07
0.000111212
0.0915126
5.11637e-07
0.000101988
0.0848184
9.16198e-05
0.076833
-3.63206e-09
3.50573e-07
0.000203504
0.114205
-5.13503e-10
3.25502e-07
0.000226719
0.126257
3.59805e-07
0.000247103
0.13632
2.50442e-07
0.000262604
0.143562
-4.38233e-09
0.000270942
0.147352
-2.59044e-07
0.000270943
0.147352
-3.67968e-07
0.000262605
0.143562
-3.32847e-07
0.000247105
0.13632
-3.56728e-07
0.000226722
0.126257
0.000203506
0.114205
-6.06776e-09
2.28552e-06
0.000335544
0.14143
-7.35595e-10
3.22448e-06
0.000373186
0.15668
3.06907e-06
0.000405969
0.169353
1.8631e-06
0.000430513
0.178448
-6.50547e-09
0.000443647
0.1832
-1.87586e-06
0.000443648
0.1832
-3.08108e-06
0.000430515
0.178448
-3.23534e-06
0.000405973
0.169353
-2.29497e-06
0.00037319
0.15668
0.000335548
0.14143
-8.61767e-09
5.45142e-06
0.000463362
0.159263
-9.83166e-10
7.94268e-06
0.00051362
0.176935
7.50377e-06
0.000556957
0.191543
4.50851e-06
0.00058896
0.20199
-8.70535e-09
0.000605982
0.207439
-4.52555e-06
0.000605983
0.207439
-7.51973e-06
0.000588963
0.20199
-7.95697e-06
0.000556961
0.191542
-5.46366e-06
0.000513625
0.176935
0.000463367
0.159263
-1.10145e-08
9.80429e-06
0.000564021
0.168467
-1.25719e-09
1.44044e-05
0.000622245
0.187874
1.3589e-05
0.000671821
0.20382
8.14019e-06
0.000707928
0.215183
-1.09284e-08
0.000726997
0.221095
-8.16153e-06
0.000726998
0.221095
-1.36089e-05
0.000707931
0.215183
-1.44221e-05
0.000671826
0.20382
-9.81916e-06
0.000622251
0.187874
0.000564027
0.168467
-1.32037e-08
1.5201e-05
0.000620176
0.169809
-1.56454e-09
2.23712e-05
0.000680099
0.190355
2.10815e-05
0.000730321
0.207128
1.26056e-05
0.000766357
0.219029
-1.30512e-08
0.000785229
0.225205
-1.26311e-05
0.00078523
0.225205
-2.11051e-05
0.00076636
0.219029
-2.2392e-05
0.000730326
0.207128
-1.52183e-05
0.000680106
0.190355
0.000620182
0.169809
-1.51634e-08
2.1456e-05
0.000622748
0.164058
-1.89984e-09
3.15312e-05
0.000677974
0.18524
2.96365e-05
0.000723377
0.202415
1.768e-05
0.000755401
0.21454
-1.50314e-08
0.000772002
0.220812
-1.77093e-05
0.000772003
0.220812
-2.96636e-05
0.000755404
0.21454
-3.15548e-05
0.000723382
0.202415
-2.14754e-05
0.00067798
0.18524
0.000622754
0.164058
-1.68223e-08
2.84937e-05
0.000571884
0.151978
-2.27391e-09
4.15342e-05
0.000617435
0.173408
3.88121e-05