/*--------------------------------*- C++ -*----------------------------------*\
| =========                 |                                                 |
| \\      /  F ield         | OpenFOAM: The Open Source CFD Toolbox           |
|  \\    /   O peration     | Version:  2106                                  |
|   \\  /    A nd           | Website:  www.openfoam.com                      |
|    \\/     M anipulation  |                                                 |
\*---------------------------------------------------------------------------*/
FoamFile
{
    version     2.0;
    format      ascii;
    arch        "LSB;label=32;scalar=64";
    class       volVectorField;
    location    "0.92";
    object      U;
}
// * * * * * * * * * * * * * * * * * * * * * * * * * * * * * * * * * * * * * //

dimensions      [0 1 -1 0 0 0 0];

internalField   nonuniform List<vector> 
10000
(
(0.0630549 0.0742999 0.34785)
(0.0537783 0.0844994 0.362445)
(0.0401624 0.0937225 0.373899)
(0.0249153 0.100155 0.38181)
(0.00844367 0.103481 0.385831)
(-0.00844368 0.103481 0.385831)
(-0.0249153 0.100155 0.38181)
(-0.0401624 0.0937225 0.373899)
(-0.0537783 0.0844994 0.362445)
(-0.0630549 0.0742999 0.34785)
(0.173413 0.205735 0.733606)
(0.146383 0.233192 0.75341)
(0.109284 0.25734 0.768164)
(0.0676141 0.274057 0.778139)
(0.0228872 0.282679 0.783126)
(-0.0228872 0.282679 0.783126)
(-0.0676141 0.274057 0.778139)
(-0.109284 0.25734 0.768164)
(-0.146383 0.233192 0.75341)
(-0.173413 0.205735 0.733606)
(0.224383 0.266434 0.931052)
(0.187288 0.298392 0.947002)
(0.138929 0.326298 0.958151)
(0.0855308 0.345389 0.965511)
(0.0288808 0.355171 0.969121)
(-0.0288809 0.355171 0.969121)
(-0.0855309 0.345389 0.965511)
(-0.138929 0.326298 0.958151)
(-0.187288 0.298392 0.947002)
(-0.224383 0.266434 0.931052)
(0.239521 0.283951 1.03094)
(0.197964 0.314065 1.04152)
(0.145942 0.340413 1.04824)
(0.0894323 0.358237 1.05254)
(0.0301298 0.36731 1.05459)
(-0.0301299 0.36731 1.05459)
(-0.0894324 0.358237 1.05254)
(-0.145942 0.340413 1.04824)
(-0.197964 0.314065 1.04152)
(-0.239521 0.283951 1.03094)
(0.237569 0.281137 1.07966)
(0.194739 0.30734 1.08566)
(0.142809 0.330406 1.08881)
(0.0871616 0.345874 1.09071)
(0.0293082 0.353701 1.09156)
(-0.0293083 0.353701 1.09156)
(-0.0871616 0.345874 1.09071)
(-0.142809 0.330406 1.08881)
(-0.194739 0.30734 1.08566)
(-0.237569 0.281137 1.07966)
(0.226478 0.267523 1.1009)
(0.184243 0.289098 1.1035)
(0.134472 0.308244 1.10416)
(0.0817706 0.321008 1.10441)
(0.0274472 0.32743 1.10446)
(-0.0274473 0.32743 1.10446)
(-0.0817707 0.321008 1.10441)
(-0.134472 0.308243 1.10416)
(-0.184243 0.289098 1.1035)
(-0.226478 0.267523 1.1009)
(0.210017 0.247446 1.10756)
(0.169559 0.264152 1.10784)
(0.1232 0.279124 1.10692)
(0.0746539 0.289088 1.10615)
(0.0250164 0.294078 1.10571)
(-0.0250165 0.294078 1.10571)
(-0.074654 0.289088 1.10615)
(-0.1232 0.279124 1.10692)
(-0.169559 0.264152 1.10784)
(-0.210017 0.247446 1.10756)
(0.190535 0.223651 1.10686)
(0.152645 0.235531 1.10568)
(0.110443 0.246318 1.10386)
(0.0667058 0.253532 1.10254)
(0.0223177 0.257145 1.10185)
(-0.0223178 0.257145 1.10185)
(-0.0667059 0.253532 1.10254)
(-0.110443 0.246318 1.10386)
(-0.152645 0.235531 1.10568)
(-0.190535 0.223651 1.10686)
(0.169575 0.197938 1.10285)
(0.134884 0.205182 1.10077)
(0.0971973 0.21191 1.09853)
(0.0585221 0.216541 1.09697)
(0.0195499 0.218881 1.09618)
(-0.01955 0.218881 1.09618)
(-0.0585222 0.216541 1.09697)
(-0.0971975 0.21191 1.09853)
(-0.134884 0.205182 1.10077)
(-0.169575 0.197938 1.10285)
(0.148309 0.171971 1.09776)
(0.117485 0.173078 1.09521)
(0.0840737 0.176382 1.09283)
(0.0504338 0.17879 1.09123)
(0.016818 0.180028 1.09043)
(-0.0168182 0.180028 1.09043)
(-0.0504339 0.17879 1.09123)
(-0.0840738 0.176382 1.09283)
(-0.117485 0.173078 1.09521)
(-0.14831 0.171971 1.09776)
(0.0112849 0.0144151 0.268639)
(0.00948086 0.0177321 0.280999)
(0.00715885 0.0203967 0.29112)
(0.00453177 0.0222234 0.298165)
(0.00155054 0.0231751 0.301771)
(-0.00155056 0.0231751 0.301771)
(-0.00453178 0.0222234 0.298165)
(-0.00715886 0.0203967 0.29112)
(-0.00948087 0.0177321 0.280999)
(-0.0112849 0.0144151 0.268639)
(0.0548533 0.0663697 0.634505)
(0.0471023 0.0798515 0.656623)
(0.0360487 0.0914036 0.674361)
(0.0227902 0.0995891 0.68656)
(0.00779899 0.103886 0.692752)
(-0.00779904 0.103886 0.692752)
(-0.0227902 0.0995891 0.68656)
(-0.0360487 0.0914036 0.674361)
(-0.0471023 0.0798515 0.656623)
(-0.0548534 0.0663697 0.634505)
(0.0985689 0.117734 0.883412)
(0.0840972 0.139242 0.907421)
(0.0640233 0.157701 0.926253)
(0.0402336 0.170729 0.939048)
(0.0137275 0.177532 0.945491)
(-0.0137275 0.177532 0.945491)
(-0.0402336 0.170729 0.939048)
(-0.0640234 0.157701 0.926253)
(-0.0840973 0.139242 0.907421)
(-0.098569 0.117734 0.883412)
(0.134942 0.159992 1.05249)
(0.114153 0.186334 1.07466)
(0.0863469 0.208833 1.09163)
(0.0539548 0.224599 1.10301)
(0.0183569 0.232787 1.1087)
(-0.018357 0.232787 1.1087)
(-0.0539549 0.224599 1.10301)
(-0.086347 0.208833 1.09163)
(-0.114153 0.186334 1.07466)
(-0.134942 0.159992 1.05249)
(0.160988 0.189788 1.16641)
(0.135023 0.217881 1.18517)
(0.101493 0.241716 1.19915)
(0.0630932 0.258297 1.20841)
(0.0214109 0.266861 1.21299)
(-0.0214111 0.266861 1.21299)
(-0.0630933 0.258297 1.20841)
(-0.101493 0.241716 1.19915)
(-0.135023 0.217881 1.18517)
(-0.160988 0.189788 1.16641)
(0.17675 0.207295 1.24204)
(0.146991 0.234633 1.25698)
(0.109825 0.257626 1.26778)
(0.0679468 0.273514 1.27482)
(0.0230032 0.281677 1.27828)
(-0.0230034 0.281677 1.27828)
(-0.0679469 0.273514 1.27482)
(-0.109825 0.257626 1.26778)
(-0.146991 0.234633 1.25698)
(-0.176751 0.207294 1.24204)
(0.183298 0.213865 1.29129)
(0.151135 0.238534 1.30261)
(0.11226 0.259038 1.31052)
(0.0691407 0.273122 1.3156)
(0.0233549 0.280324 1.31806)
(-0.0233551 0.280324 1.31806)
(-0.0691409 0.273122 1.3156)
(-0.112261 0.259038 1.31052)
(-0.151135 0.238534 1.30261)
(-0.183298 0.213865 1.29129)
(0.18198 0.211142 1.32257)
(0.148751 0.231751 1.33077)
(0.109864 0.248603 1.33629)
(0.0673765 0.260123 1.33976)
(0.0227107 0.265996 1.34142)
(-0.022711 0.265996 1.34142)
(-0.0673767 0.260123 1.33976)
(-0.109864 0.248603 1.33629)
(-0.148751 0.231751 1.33077)
(-0.18198 0.211142 1.32257)
(0.174266 0.200814 1.34177)
(0.141267 0.216421 1.34746)
(0.103746 0.228823 1.35113)
(0.063353 0.237318 1.35337)
(0.0213092 0.241645 1.35442)
(-0.0213095 0.241645 1.35442)
(-0.0633532 0.237318 1.35337)
(-0.103746 0.228823 1.35113)
(-0.141267 0.216421 1.34746)
(-0.174266 0.200814 1.34177)
(0.161736 0.185708 1.35302)
(0.130239 0.193702 1.35687)
(0.0948645 0.201302 1.35916)
(0.0576379 0.206543 1.36049)
(0.0193394 0.20921 1.36109)
(-0.0193397 0.20921 1.36109)
(-0.0576382 0.206543 1.36049)
(-0.0948647 0.201302 1.35916)
(-0.13024 0.193702 1.35687)
(-0.161736 0.185708 1.35302)
(0.00113131 0.00126346 0.158878)
(0.00114249 0.00161345 0.167243)
(0.000890616 0.00202498 0.174228)
(0.000596166 0.0023298 0.179172)
(0.000207738 0.00249872 0.181732)
(-0.000207754 0.00249872 0.181732)
(-0.000596181 0.0023298 0.179172)
(-0.00089063 0.00202497 0.174228)
(-0.00114251 0.00161344 0.167243)
(-0.00113132 0.00126345 0.158878)
(0.0181664 0.0210801 0.445113)
(0.0163371 0.0257177 0.465475)
(0.0127861 0.0300818 0.482197)
(0.00821203 0.0333051 0.493934)
(0.0028297 0.0350367 0.499975)
(-0.00282975 0.0350367 0.499975)
(-0.00821207 0.0333051 0.493934)
(-0.0127862 0.0300817 0.482197)
(-0.0163371 0.0257177 0.465475)
(-0.0181665 0.02108 0.445113)
(0.0414106 0.0482013 0.690606)
(0.036574 0.0579103 0.7184)
(0.0284141 0.0667661 0.740861)
(0.0181002 0.0732416 0.756496)
(0.00621462 0.0766902 0.764502)
(-0.00621471 0.0766902 0.764502)
(-0.0181003 0.0732416 0.756496)
(-0.0284142 0.066766 0.740861)
(-0.0365741 0.0579103 0.7184)
(-0.0414106 0.0482012 0.690606)
(0.06649 0.0774549 0.894818)
(0.0579552 0.0917521 0.926243)
(0.0446929 0.104544 0.951217)
(0.0282879 0.113799 0.968453)
(0.00968313 0.118692 0.977235)
(-0.00968326 0.118692 0.977235)
(-0.028288 0.113799 0.968453)
(-0.044693 0.104544 0.951216)
(-0.0579553 0.091752 0.926243)
(-0.0664901 0.0774549 0.894818)
(0.0888963 0.103438 1.06121)
(0.0766066 0.120844 1.09346)
(0.0586576 0.136187 1.11865)
(0.0369182 0.147181 1.13589)
(0.012603 0.152957 1.14463)
(-0.0126032 0.152957 1.14463)
(-0.0369184 0.147181 1.13589)
(-0.0586577 0.136187 1.11865)
(-0.0766067 0.120844 1.09346)
(-0.0888964 0.103438 1.06121)
(0.106368 0.123449 1.19472)
(0.0907026 0.142197 1.22589)
(0.0689761 0.158499 1.24983)
(0.0431868 0.170076 1.26608)
(0.0147056 0.176122 1.27428)
(-0.0147058 0.176122 1.27428)
(-0.043187 0.170076 1.26608)
(-0.0689763 0.158499 1.24983)
(-0.0907028 0.142197 1.22589)
(-0.106368 0.123449 1.19472)
(0.118048 0.136511 1.30052)
(0.0996413 0.154902 1.32946)
(0.0752657 0.170655 1.35133)
(0.0468903 0.181754 1.36605)
(0.0159277 0.187518 1.37344)
(-0.015928 0.187517 1.37344)
(-0.0468905 0.181754 1.36605)
(-0.0752659 0.170655 1.35133)
(-0.0996415 0.154902 1.32946)
(-0.118049 0.136511 1.30052)
(0.123811 0.142513 1.38342)
(0.103455 0.159058 1.40954)
(0.0776284 0.172979 1.42897)
(0.0481273 0.182714 1.44196)
(0.0163086 0.187746 1.44845)
(-0.0163088 0.187746 1.44845)
(-0.0481276 0.182714 1.44196)
(-0.0776286 0.172979 1.42897)
(-0.103455 0.159058 1.40954)
(-0.123811 0.142512 1.38342)
(0.124057 0.141894 1.44757)
(0.10264 0.155404 1.47074)
(0.0764823 0.16644 1.48773)
(0.0471729 0.174125 1.49897)
(0.0159443 0.17808 1.50455)
(-0.0159446 0.17808 1.50455)
(-0.0471732 0.174125 1.49897)
(-0.0764826 0.16644 1.48773)
(-0.10264 0.155404 1.47074)
(-0.124057 0.141894 1.44757)
(0.119612 0.136485 1.49634)
(0.0979958 0.144606 1.51707)
(0.0723029 0.15195 1.5317)
(0.0443185 0.157037 1.54124)
(0.0149339 0.159641 1.54594)
(-0.0149342 0.159641 1.54594)
(-0.0443188 0.157037 1.54124)
(-0.0723032 0.15195 1.5317)
(-0.097996 0.144606 1.51707)
(-0.119612 0.136485 1.49634)
(0.000719189 0.00094448 0.138967)
(0.000562194 0.00118424 0.145827)
(0.000385055 0.00135428 0.151413)
(0.000238818 0.00145495 0.155334)
(7.99746e-05 0.00150534 0.157357)
(-7.99894e-05 0.00150534 0.157357)
(-0.000238832 0.00145494 0.155334)
(-0.000385068 0.00135428 0.151413)
(-0.000562207 0.00118423 0.145827)
(-0.000719199 0.000944472 0.138967)
(0.00710146 0.00849101 0.398485)
(0.00616695 0.0104659 0.416691)
(0.00474251 0.012175 0.431431)
(0.0030258 0.013402 0.441747)
(0.00103918 0.0140548 0.447056)
(-0.00103923 0.0140548 0.447056)
(-0.00302585 0.013402 0.441746)
(-0.00474255 0.012175 0.431431)
(-0.00616699 0.0104659 0.416691)
(-0.0071015 0.00849099 0.398485)
(0.017418 0.0205656 0.633438)
(0.0151953 0.0250402 0.660316)
(0.0117605 0.0289673 0.681907)
(0.00749263 0.0318187 0.696956)
(0.00257314 0.0333356 0.70468)
(-0.00257323 0.0333356 0.70468)
(-0.00749271 0.0318187 0.696956)
(-0.0117606 0.0289673 0.681907)
(-0.0151954 0.0250401 0.660316)
(-0.0174181 0.0205656 0.633438)
(0.0298868 0.035088 0.841894)
(0.025988 0.0422117 0.874741)
(0.0200875 0.0484633 0.900879)
(0.0127571 0.0529978 0.919008)
(0.00437496 0.0554026 0.928283)
(-0.00437508 0.0554026 0.928283)
(-0.0127573 0.0529978 0.919008)
(-0.0200876 0.0484633 0.900879)
(-0.0259881 0.0422117 0.874741)
(-0.0298869 0.035088 0.841894)
(0.0424392 0.0496027 1.02381)
(0.0366756 0.0589206 1.06019)
(0.0282347 0.0670514 1.08883)
(0.0178604 0.0729195 1.10859)
(0.00611343 0.0760185 1.11867)
(-0.00611359 0.0760185 1.11867)
(-0.0178605 0.0729195 1.10859)
(-0.0282348 0.0670514 1.08883)
(-0.0366757 0.0589206 1.06019)
(-0.0424394 0.0496027 1.02381)
(0.0535711 0.0623365 1.18036)
(0.0459446 0.0730432 1.21822)
(0.035184 0.0822988 1.2477)
(0.0221591 0.0889346 1.26793)
(0.00756857 0.0924221 1.27821)
(-0.00756877 0.0924221 1.27821)
(-0.0221593 0.0889346 1.26793)
(-0.0351842 0.0822988 1.2477)
(-0.0459447 0.0730432 1.21822)
(-0.0535712 0.0623364 1.18036)
(0.0622877 0.0721387 1.31335)
(0.0529649 0.0832722 1.35108)
(0.0403176 0.0927746 1.38013)
(0.0252746 0.0995368 1.39996)
(0.0086129 0.103073 1.41)
(-0.00861314 0.103073 1.41)
(-0.0252748 0.0995368 1.39996)
(-0.0403178 0.0927746 1.38013)
(-0.0529651 0.0832722 1.35108)
(-0.0622878 0.0721387 1.31335)
(0.0679918 0.0783211 1.42484)
(0.057285 0.0888983 1.46125)
(0.043326 0.0977782 1.48899)
(0.0270291 0.104046 1.50782)
(0.00918842 0.107307 1.51731)
(-0.0091887 0.107307 1.51731)
(-0.0270293 0.104046 1.50782)
(-0.0433262 0.0977782 1.48899)
(-0.0572852 0.0888983 1.46125)
(-0.067992 0.0783211 1.42484)
(0.0704859 0.0806173 1.51681)
(0.05882 0.0897509 1.55124)
(0.0441708 0.0972036 1.57714)
(0.0274073 0.102426 1.59457)
(0.00929163 0.105128 1.60332)
(-0.00929193 0.105128 1.60332)
(-0.0274076 0.102426 1.59457)
(-0.044171 0.0972036 1.57714)
(-0.0588203 0.0897509 1.55124)
(-0.0704861 0.0806173 1.51681)
(0.0699516 0.079823 1.59098)
(0.0577616 0.0858935 1.62367)
(0.0429344 0.0911694 1.64737)
(0.0264629 0.0948315 1.66309)
(0.0089417 0.0967112 1.67092)
(-0.00894202 0.0967112 1.67092)
(-0.0264632 0.0948315 1.66309)
(-0.0429347 0.0911694 1.64737)
(-0.0577619 0.0858935 1.62367)
(-0.0699518 0.079823 1.59098)
(0.000131715 0.000144097 0.127946)
(0.000121993 0.000188854 0.134337)
(9.01434e-05 0.000234691 0.139532)
(6.16651e-05 0.00026682 0.143184)
(2.12971e-05 0.000285035 0.14507)
(-2.13098e-05 0.000285034 0.14507)
(-6.16773e-05 0.000266817 0.143184)
(-9.01547e-05 0.000234687 0.139532)
(-0.000122003 0.000188848 0.134337)
(-0.000131723 0.00014409 0.127946)
(0.00253476 0.002932 0.37105)
(0.0022672 0.00363482 0.388432)
(0.00177585 0.00428209 0.402514)
(0.00114776 0.0047637 0.412395)
(0.000396318 0.00502512 0.417487)
(-0.000396361 0.00502512 0.417487)
(-0.00114781 0.00476369 0.412395)
(-0.00177589 0.00428208 0.402514)
(-0.00226723 0.0036348 0.388432)
(-0.00253479 0.00293198 0.37105)
(0.00690472 0.00801008 0.596447)
(0.00613458 0.00981969 0.622831)
(0.00480851 0.011463 0.644093)
(0.00309017 0.0126856 0.658971)
(0.00106542 0.0133446 0.666624)
(-0.0010655 0.0133446 0.666624)
(-0.00309024 0.0126856 0.658971)
(-0.00480858 0.011463 0.644093)
(-0.00613464 0.00981966 0.622831)
(-0.00690477 0.00801005 0.596447)
(0.0126728 0.0147039 0.802623)
(0.0111858 0.0178296 0.835934)
(0.00874247 0.0206418 0.862592)
(0.00559445 0.0227235 0.881182)
(0.0019255 0.0238399 0.890726)
(-0.00192561 0.0238399 0.890726)
(-0.00559455 0.0227235 0.881182)
(-0.00874257 0.0206418 0.862592)
(-0.0111859 0.0178296 0.835934)
(-0.0126729 0.0147039 0.802622)
(0.0189559 0.0219584 0.988835)
(0.0166109 0.0263136 1.02704)
(0.0129246 0.0301957 1.05738)
(0.00823589 0.0330503 1.07845)
(0.00282914 0.0345737 1.08924)
(-0.00282928 0.0345737 1.08924)
(-0.00823603 0.0330503 1.07845)
(-0.0129248 0.0301957 1.05738)
(-0.016611 0.0263135 1.02704)
(-0.018956 0.0219584 0.988835)
(0.0249772 0.0288516 1.15496)
(0.0217138 0.0341259 1.19618)
(0.0168038 0.0387771 1.22862)
(0.0106605 0.0421717 1.25106)
(0.00365421 0.0439739 1.26252)
(-0.00365439 0.0439739 1.26252)
(-0.0106606 0.0421717 1.25106)
(-0.0168039 0.038777 1.22862)
(-0.0217139 0.0341258 1.19618)
(-0.0249773 0.0288516 1.15496)
(0.0301151 0.0346555 1.30131)
(0.0259536 0.0403938 1.34387)
(0.0199624 0.0453885 1.37705)
(0.0126049 0.0490042 1.39991)
(0.00431072 0.0509136 1.41155)
(-0.00431093 0.0509135 1.41155)
(-0.0126051 0.0490042 1.39991)
(-0.0199626 0.0453885 1.37705)
(-0.0259538 0.0403937 1.34387)
(-0.0301152 0.0346555 1.30131)
(0.0339114 0.0388334 1.42842)
(0.0289531 0.0445102 1.47092)
(0.022121 0.049372 1.50376)
(0.0138975 0.0528592 1.52626)
(0.00474073 0.0546899 1.53768)
(-0.00474098 0.0546899 1.53768)
(-0.0138977 0.0528592 1.52626)
(-0.0221213 0.049372 1.50376)
(-0.0289533 0.0445102 1.47092)
(-0.0339116 0.0388333 1.42842)
(0.0361189 0.0410759 1.53688)
(0.0305296 0.0461747 1.57837)
(0.0231463 0.0504176 1.61007)
(0.0144565 0.0534307 1.6316)
(0.0049168 0.0550013 1.64247)
(-0.00491707 0.0550013 1.64247)
(-0.0144568 0.0534307 1.6316)
(-0.0231465 0.0504176 1.61007)
(-0.0305299 0.0461747 1.57837)
(-0.0361191 0.0410759 1.53688)
(0.0367085 0.0416931 1.62708)
(0.0306487 0.0452969 1.6677)
(0.0229775 0.0484145 1.69757)
(0.0142452 0.0505967 1.71758)
(0.00482701 0.051723 1.7276)
(-0.00482729 0.051723 1.7276)
(-0.0142455 0.0505967 1.71758)
(-0.0229778 0.0484145 1.69757)
(-0.0306489 0.0452969 1.6677)
(-0.0367087 0.0416931 1.62708)
(8.03438e-05 0.000108408 0.124952)
(5.62814e-05 0.000137518 0.131143)
(3.45277e-05 0.000154388 0.136143)
(2.11317e-05 0.000162735 0.139653)
(6.86666e-06 0.000166734 0.141463)
(-6.87683e-06 0.000166733 0.141463)
(-2.11417e-05 0.000162732 0.139653)
(-3.45367e-05 0.000154384 0.136143)
(-5.62897e-05 0.000137514 0.131143)
(-8.03508e-05 0.000108403 0.124952)
(0.00104943 0.00125315 0.362479)
(0.000901539 0.00155429 0.379412)
(0.000689536 0.00180779 0.393071)
(0.000440381 0.00198978 0.402646)
(0.000151164 0.00208711 0.407578)
(-0.000151199 0.0020871 0.407578)
(-0.000440415 0.00198977 0.402646)
(-0.000689566 0.00180778 0.393071)
(-0.000901567 0.00155428 0.379411)
(-0.00104945 0.00125313 0.362479)
(0.00289235 0.00340434 0.583923)
(0.00252617 0.00418746 0.609874)
(0.00196149 0.00487083 0.630733)
(0.00125504 0.00537247 0.645327)
(0.000431843 0.00564155 0.652836)
(-0.000431905 0.00564155 0.652836)
(-0.0012551 0.00537246 0.645327)
(-0.00196155 0.00487081 0.630733)
(-0.00252622 0.00418744 0.609874)
(-0.00289239 0.00340432 0.583923)
(0.00542189 0.00634222 0.788558)
(0.0047487 0.00773202 0.821755)
(0.00369855 0.00895699 0.848304)
(0.00236431 0.0098598 0.866834)
(0.00081347 0.0103435 0.876353)
(-0.00081356 0.0103435 0.876353)
(-0.0023644 0.00985979 0.866834)
(-0.00369863 0.00895698 0.848304)
(-0.00474878 0.007732 0.821755)
(-0.00542196 0.00634219 0.788557)
(0.00830978 0.00967544 0.975883)
(0.00726161 0.0116743 1.01456)
(0.00564866 0.0134365 1.0453)
(0.00360243 0.0147325 1.06669)
(0.00123817 0.015425 1.07766)
(-0.00123829 0.015425 1.07766)
(-0.00360255 0.0147325 1.06669)
(-0.00564877 0.0134365 1.0453)
(-0.00726171 0.0116743 1.01456)
(-0.00830986 0.00967541 0.975882)
(0.0112215 0.0130079 1.14562)
(0.00975752 0.0155075 1.18807)
(0.00756363 0.0176991 1.22156)
(0.00480776 0.019303 1.24479)
(0.00164981 0.0201567 1.25668)
(-0.00164996 0.0201567 1.25668)
(-0.00480791 0.019303 1.24479)
(-0.00756377 0.0176991 1.22156)
(-0.00975764 0.0155075 1.18807)
(-0.0112216 0.0130079 1.14562)
(0.013848 0.0159774 1.29768)
(0.0119597 0.0187822 1.34228)
(0.00922494 0.0212177 1.3772)
(0.00584013 0.0229879 1.40134)
(0.00200005 0.0239256 1.41367)
(-0.00200023 0.0239256 1.41367)
(-0.0058403 0.0229879 1.40134)
(-0.0092251 0.0212176 1.3772)
(-0.0119599 0.0187822 1.34228)
(-0.0138481 0.0159773 1.29768)
(0.0159285 0.0182764 1.43205)
(0.013645 0.0211352 1.47736)
(0.0104617 0.0235832 1.51257)
(0.00659204 0.0253471 1.5368)
(0.00225218 0.0262761 1.54913)
(-0.00225238 0.0262761 1.54913)
(-0.00659223 0.0253471 1.5368)
(-0.0104619 0.0235832 1.51257)
(-0.0136451 0.0211352 1.47736)
(-0.0159286 0.0182764 1.43204)
(0.0172906 0.01969 1.54862)
(0.0146741 0.022336 1.59361)
(0.0111676 0.0245418 1.62821)
(0.0069964 0.0261145 1.65183)
(0.00238328 0.0269365 1.66379)
(-0.0023835 0.0269365 1.66379)
(-0.00699662 0.0261145 1.65183)
(-0.0111678 0.0245418 1.62821)
(-0.0146742 0.022336 1.59361)
(-0.0172907 0.01969 1.54862)
(0.0178691 0.0203186 1.6471)
(0.0149788 0.0222721 1.69188)
(0.0112735 0.0239472 1.72502)
(0.00701003 0.0251232 1.74733)
(0.00237891 0.0257314 1.75853)
(-0.00237915 0.0257314 1.75853)
(-0.00701026 0.0251232 1.74733)
(-0.0112738 0.0239472 1.72502)
(-0.014979 0.0222721 1.69188)
(-0.0178693 0.0203186 1.6471)
(1.24137e-05 1.52782e-05 0.12344)
(8.45649e-06 2.08707e-05 0.129563)
(4.75337e-06 2.45421e-05 0.134505)
(3.50038e-06 2.66484e-05 0.137975)
(1.17448e-06 2.78718e-05 0.139764)
(-1.1822e-06 2.78712e-05 0.139764)
(-3.50787e-06 2.66467e-05 0.137975)
(-4.76035e-06 2.45394e-05 0.134505)
(-8.46296e-06 2.08669e-05 0.129563)
(-1.2419e-05 1.52738e-05 0.12344)
(0.000365158 0.000426697 0.358206)
(0.000318801 0.000532611 0.374967)
(0.000246943 0.000625005 0.388481)
(0.000159418 0.000693283 0.397957)
(5.49789e-05 0.000730386 0.402838)
(-5.50054e-05 0.000730385 0.402838)
(-0.000159443 0.000693278 0.397957)
(-0.000246967 0.000624997 0.388481)
(-0.000318823 0.000532601 0.374967)
(-0.000365176 0.000426685 0.358206)
(0.00109036 0.00126866 0.577539)
(0.000961761 0.00156916 0.6033)
(0.000752882 0.00183647 0.624006)
(0.000484703 0.00203613 0.6385)
(0.000167257 0.00214422 0.645959)
(-0.000167304 0.00214422 0.645959)
(-0.000484749 0.00203613 0.6385)
(-0.000752925 0.00183646 0.624005)
(-0.0009618 0.00156914 0.6033)
(-0.00109039 0.00126864 0.577538)
(0.0021379 0.00248091 0.781037)
(0.00188781 0.00304172 0.814153)
(0.00148047 0.00354292 0.84065)
(0.00095116 0.00391737 0.859161)
(0.000328046 0.00411951 0.868675)
(-0.000328116 0.0041195 0.868675)
(-0.000951227 0.00391736 0.859161)
(-0.00148053 0.0035429 0.84065)
(-0.00188786 0.0030417 0.814153)
(-0.00213795 0.00248089 0.781036)
(0.00338564 0.00391702 0.968376)
(0.00298177 0.0047546 1.00721)
(0.00233481 0.00550198 1.0381)
(0.00149612 0.00605845 1.05963)
(0.000515421 0.00635784 1.07068)
(-0.000515513 0.00635783 1.07068)
(-0.00149621 0.00605844 1.05963)
(-0.00233489 0.00550196 1.0381)
(-0.00298184 0.00475458 1.00721)
(-0.0033857 0.003917 0.968375)
(0.00469501 0.00541242 1.13931)
(0.00411487 0.00649319 1.18224)
(0.0032109 0.00745194 1.21618)
(0.0020507 0.00816187 1.23976)
(0.000705358 0.00854226 1.25185)
(-0.000705473 0.00854226 1.25185)
(-0.00205081 0.00816186 1.23976)
(-0.00321101 0.00745193 1.21618)
(-0.00411496 0.00649317 1.18224)
(-0.00469509 0.00541239 1.1393)
(0.00592625 0.00680276 1.29362)
(0.00515988 0.00804917 1.3391)
(0.00400679 0.00914433 1.3748)
(0.00254876 0.00994946 1.39954)
(0.000874922 0.0103787 1.41219)
(-0.00087506 0.0103787 1.41219)
(-0.00254889 0.00994945 1.39954)
(-0.00400692 0.00914432 1.3748)
(-0.00516 0.00804916 1.33909)
(-0.00592635 0.00680274 1.29362)
(0.00695167 0.00793739 1.4311)
(0.00600475 0.00923968 1.4777)
(0.0046348 0.0103685 1.51403)
(0.00293422 0.0111906 1.53909)
(0.0010048 0.0116262 1.55187)
(-0.00100495 0.0116262 1.55187)
(-0.00293437 0.0111906 1.53909)
(-0.00463494 0.0103685 1.51403)
(-0.00600489 0.00923967 1.4777)
(-0.00695179 0.00793738 1.4311)
(0.00767877 0.00870232 1.55137)
(0.00657041 0.00993712 1.59803)
(0.00503251 0.0109784 1.63405)
(0.00316686 0.0117275 1.65871)
(0.0010811 0.0121211 1.67121)
(-0.00108128 0.0121211 1.67121)
(-0.00316703 0.0117275 1.6587)
(-0.00503267 0.0109784 1.63405)
(-0.00657056 0.00993712 1.59803)
(-0.0076789 0.00870232 1.55137)
(0.00806043 0.00913052 1.6538)
(0.00680504 0.0100739 1.70062)
(0.0051516 0.0108813 1.73541)
(0.00321606 0.0114515 1.75889)
(0.00109349 0.0117476 1.7707)
(-0.00109367 0.0117476 1.7707)
(-0.00321624 0.0114515 1.75889)
(-0.00515177 0.0108813 1.73541)
(-0.0068052 0.0100739 1.70062)
(-0.00806057 0.00913053 1.6538)
(7.83515e-06 1.24588e-05 0.123039)
(3.25537e-06 1.62507e-05 0.129134)
(6.48514e-07 1.73777e-05 0.134049)
(1.60124e-07 1.74059e-05 0.1375)
(-2.79593e-08 1.73175e-05 0.139279)
(2.23215e-08 1.73171e-05 0.139279)
(-1.65581e-07 1.74047e-05 0.1375)
(-6.53607e-07 1.73757e-05 0.134049)
(-3.26017e-06 1.62479e-05 0.129134)
(-7.83902e-06 1.24556e-05 0.123039)
(0.000140474 0.000170682 0.356897)
(0.000116462 0.000213404 0.373579)
(8.72958e-05 0.000247048 0.387018)
(5.53892e-05 0.00027074 0.39644)
(1.89399e-05 0.000283342 0.401293)
(-1.89595e-05 0.000283341 0.401293)
(-5.54081e-05 0.000270736 0.39644)
(-8.73135e-05 0.000247042 0.387018)
(-0.000116478 0.000213396 0.373579)
(-0.000140488 0.000170673 0.356897)
(0.000422411 0.000499813 0.575436)
(0.000364803 0.000620098 0.601098)
(0.00028197 0.000722595 0.621711)
(0.000180347 0.000797879 0.63614)
(6.20399e-05 0.000838337 0.643565)
(-6.20751e-05 0.000838335 0.643565)
(-0.000180381 0.000797874 0.63614)
(-0.000282002 0.000722587 0.621711)
(-0.000364832 0.000620087 0.601098)
(-0.000422436 0.0004998 0.575436)
(0.000840605 0.000984371 0.778445)
(0.000734714 0.00121205 0.811493)
(0.000572916 0.00141105 0.837928)
(0.00036712 0.00155873 0.856396)
(0.000126468 0.00163826 0.865889)
(-0.00012652 0.00163826 0.865889)
(-0.00036717 0.00155873 0.856396)
(-0.000572963 0.00141104 0.837927)
(-0.000734757 0.00121203 0.811493)
(-0.000840642 0.000984355 0.778445)
(0.00135437 0.0015757 0.965722)
(0.00118699 0.00192248 1.00457)
(0.0009274 0.00222811 1.03549)
(0.0005939 0.00245519 1.05704)
(0.000204559 0.00257733 1.0681)
(-0.000204628 0.00257733 1.0681)
(-0.000593967 0.00245519 1.05704)
(-0.000927463 0.0022281 1.03549)
(-0.00118705 0.00192246 1.00457)
(-0.00135442 0.00157568 0.965722)
(0.00191103 0.00221139 1.13707)
(0.00167185 0.00266828 1.18017)
(0.0013043 0.00307075 1.21425)
(0.000833466 0.00336887 1.23795)
(0.000286777 0.00352875 1.2501)
(-0.000286864 0.00352875 1.2501)
(-0.00083355 0.00336887 1.23795)
(-0.00130438 0.00307074 1.21425)
(-0.00167192 0.00266826 1.18017)
(-0.00191109 0.00221137 1.13707)
(0.00245209 0.00282263 1.29229)
(0.00213518 0.00336049 1.3381)
(0.0016597 0.00383129 1.37411)
(0.00105706 0.00417798 1.39907)
(0.000363106 0.0043631 1.41185)
(-0.000363209 0.0043631 1.41185)
(-0.00105716 0.00417797 1.39907)
(-0.00165979 0.00383128 1.37411)
(-0.00213526 0.00336047 1.3381)
(-0.00245216 0.00282262 1.29229)
(0.00291987 0.00334117 1.43108)
(0.00252545 0.00391447 1.47821)
(0.00195269 0.00441065 1.51501)
(0.00123826 0.00477279 1.54042)
(0.000424393 0.00496501 1.55338)
(-0.000424512 0.00496501 1.55338)
(-0.00123837 0.00477278 1.54042)
(-0.0019528 0.00441064 1.51501)
(-0.00252555 0.00391446 1.47821)
(-0.00291996 0.00334116 1.43108)
(0.00326891 0.00371069 1.55297)
(0.00280284 0.00426526 1.60037)
(0.00215142 0.00473304 1.63701)
(0.00135633 0.00507023 1.66212)
(0.000463452 0.00524767 1.67486)
(-0.000463583 0.00524767 1.67486)
(-0.00135646 0.00507023 1.66212)
(-0.00215154 0.00473304 1.63701)
(-0.00280295 0.00426526 1.60036)
(-0.00326901 0.00371068 1.55297)
(0.00347221 0.00393869 1.65718)
(0.00293794 0.00437373 1.70493)
(0.00222939 0.00474449 1.74048)
(0.00139437 0.00500679 1.7645)
(0.000474534 0.00514315 1.77659)
(-0.000474674 0.00514315 1.77659)
(-0.00139451 0.00500679 1.76449)
(-0.00222952 0.00474449 1.74048)
(-0.00293807 0.00437373 1.70493)
(-0.00347231 0.00393869 1.65718)
(-4.15881e-07 2.24433e-07 0.12286)
(-1.46276e-06 7.25199e-07 0.128946)
(-1.66071e-06 5.54967e-07 0.133853)
(-1.07982e-06 2.42169e-07 0.137298)
(-3.90935e-07 6.47147e-08 0.139074)
(3.86965e-07 6.44182e-08 0.139074)
(1.07599e-06 2.41287e-07 0.137298)
(1.65712e-06 5.53549e-07 0.133853)
(1.45938e-06 7.2327e-07 0.128946)
(4.13156e-07 2.22154e-07 0.12286)
(3.99254e-05 4.8033e-05 0.356322)
(3.28363e-05 6.10146e-05 0.372975)
(2.45978e-05 7.12787e-05 0.386388)
(1.57137e-05 7.86576e-05 0.395792)
(5.38303e-06 8.26364e-05 0.400636)
(-5.3969e-06 8.26356e-05 0.400636)
(-1.57271e-05 7.86551e-05 0.395792)
(-2.46103e-05 7.12747e-05 0.386388)
(-3.28479e-05 6.10091e-05 0.372975)
(-3.99349e-05 4.80265e-05 0.356322)
(0.000136662 0.000160427 0.5745)
(0.000118366 0.000201148 0.600122)
(9.19287e-05 0.000236174 0.6207)
(5.90864e-05 0.000262299 0.635104)
(2.03683e-05 0.000276454 0.642517)
(-2.03933e-05 0.000276453 0.642517)
(-5.91106e-05 0.000262295 0.635104)
(-9.19514e-05 0.000236168 0.620699)
(-0.000118387 0.00020114 0.600122)
(-0.000136679 0.000160417 0.5745)
(0.000289154 0.000336393 0.777253)
(0.000254005 0.000417891 0.810268)
(0.000199158 0.000489779 0.836675)
(0.000128189 0.000543811 0.855125)
(4.42502e-05 0.000573104 0.86461)
(-4.42874e-05 0.000573102 0.86461)
(-0.000128225 0.000543806 0.855125)
(-0.000199192 0.000489771 0.836674)
(-0.000254036 0.000417881 0.810268)
(-0.000289181 0.000336382 0.777253)
(0.000484744 0.00056068 0.964436)
(0.000427378 0.000689643 1.00328)
(0.000335852 0.000804324 1.0342)
(0.000216023 0.000890518 1.05576)
(7.45598e-05 0.000937169 1.06682)
(-7.46095e-05 0.000937167 1.06682)
(-0.000216071 0.000890513 1.05576)
(-0.000335898 0.000804316 1.0342)
(-0.000427419 0.000689632 1.00328)
(-0.00048478 0.000560667 0.964435)
(0.000704382 0.000810671 1.13588)
(0.000620264 0.000985675 1.17903)
(0.000486812 0.00114123 1.21316)
(0.000312451 0.00125771 1.23691)
(0.000107734 0.00132055 1.24908)
(-0.000107796 0.00132055 1.24908)
(-0.000312512 0.0012577 1.23691)
(-0.00048687 0.00114123 1.21316)
(-0.000620317 0.000985665 1.17903)
(-0.000704428 0.000810658 1.13588)
(0.000925108 0.00105935 1.2914)
(0.000811155 0.00127046 1.33734)
(0.000634376 0.00145696 1.37346)
(0.000405812 0.00159569 1.39852)
(0.000139692 0.0016702 1.41134)
(-0.000139766 0.00167019 1.41134)
(-0.000405884 0.00159569 1.39852)
(-0.000634444 0.00145695 1.37346)
(-0.000811218 0.00127045 1.33734)
(-0.000925164 0.00105933 1.2914)
(0.00112297 0.00127837 1.43068)
(0.00097828 0.00150824 1.47802)
(0.000761 0.00170903 1.51501)
(0.000484643 0.00185694 1.54056)
(0.000166442 0.00193586 1.5536)
(-0.000166528 0.00193586 1.5536)
(-0.000484726 0.00185694 1.54056)
(-0.00076108 0.00170903 1.51501)
(-0.000978353 0.00150823 1.47802)
(-0.00112303 0.00127836 1.43068)
(0.00127806 0.00144338 1.55321)
(0.00110362 0.00167025 1.6009)
(0.000851996 0.00186318 1.6378)
(0.000539274 0.00200329 1.6631)
(0.000184615 0.00207733 1.67595)
(-0.00018471 0.00207733 1.67595)
(-0.000539367 0.00200329 1.6631)
(-0.000852084 0.00186318 1.6378)
(-0.00110371 0.00167025 1.6009)
(-0.00127813 0.00144337 1.55321)
(0.00137709 0.00155605 1.65814)
(0.0011723 0.00173883 1.70629)
(0.000894184 0.00189414 1.74215)
(0.000561236 0.00200454 1.7664)
(0.000191312 0.0020621 1.77861)
(-0.000191415 0.0020621 1.77861)
(-0.000561336 0.00200454 1.7664)
(-0.000894279 0.00189414 1.74215)
(-0.00117239 0.00173883 1.70629)
(-0.00137717 0.00155605 1.65814)
(2.69163e-08 7.967e-07 0.122831)
(-8.36859e-07 1.18609e-06 0.128914)
(-1.0465e-06 1.01748e-06 0.133818)
(-7.59575e-07 7.27347e-07 0.13726)
(-2.8248e-07 5.42166e-07 0.139035)
(2.79796e-07 5.41966e-07 0.139035)
(7.56979e-07 7.26745e-07 0.13726)
(1.04407e-06 1.01651e-06 0.133818)
(8.34623e-07 1.18478e-06 0.128914)
(-2.8748e-08 7.95196e-07 0.122831)
(1.14462e-05 1.50202e-05 0.356187)
(8.11779e-06 1.93335e-05 0.372828)
(5.42843e-06 2.20858e-05 0.386229)
(3.25857e-06 2.38331e-05 0.395625)
(1.07708e-06 2.47201e-05 0.400464)
(-1.08653e-06 2.47195e-05 0.400464)
(-3.2677e-06 2.38313e-05 0.395625)
(-5.43697e-06 2.2083e-05 0.386229)
(-8.12556e-06 1.93298e-05 0.372828)
(-1.14526e-05 1.50159e-05 0.356187)
(4.22155e-05 5.11016e-05 0.574245)